PSF EXT CMAP XPLOR AUTOG

         3 !NTITLE
* GENERATED BY CHARMM-GUI (HTTP://WWW.CHARMM-GUI.ORG) V3.7 ON AUG, 30. 2026. JOB
* INPUT GENERATION                                                              
*  DATE:     8/30/26     21:48:50      CREATED BY USER: charmm-gui              

     35253 !NATOM
         1 PROA     1        ASN      N        NH3     -0.300000       14.0070           0
         2 PROA     1        ASN      HT1      HC       0.330000       1.00800           0
         3 PROA     1        ASN      HT2      HC       0.330000       1.00800           0
         4 PROA     1        ASN      HT3      HC       0.330000       1.00800           0
         5 PROA     1        ASN      CA       CT1      0.210000       12.0110           0
         6 PROA     1        ASN      HA       HB1      0.100000       1.00800           0
         7 PROA     1        ASN      CB       CT2     -0.180000       12.0110           0
         8 PROA     1        ASN      HB1      HA2      0.900000E-01   1.00800           0
         9 PROA     1        ASN      HB2      HA2      0.900000E-01   1.00800           0
        10 PROA     1        ASN      CG       CC       0.550000       12.0110           0
        11 PROA     1        ASN      OD1      O       -0.550000       15.9994           0
        12 PROA     1        ASN      ND2      NH2     -0.620000       14.0070           0
        13 PROA     1        ASN      HD21     H        0.320000       1.00800           0
        14 PROA     1        ASN      HD22     H        0.300000       1.00800           0
        15 PROA     1        ASN      C        C        0.510000       12.0110           0
        16 PROA     1        ASN      O        O       -0.510000       15.9994           0
        17 PROA     2        ASN      N        NH1     -0.470000       14.0070           0
        18 PROA     2        ASN      HN       H        0.310000       1.00800           0
        19 PROA     2        ASN      CA       CT1      0.700000E-01   12.0110           0
        20 PROA     2        ASN      HA       HB1      0.900000E-01   1.00800           0
        21 PROA     2        ASN      CB       CT2     -0.180000       12.0110           0
        22 PROA     2        ASN      HB1      HA2      0.900000E-01   1.00800           0
        23 PROA     2        ASN      HB2      HA2      0.900000E-01   1.00800           0
        24 PROA     2        ASN      CG       CC       0.550000       12.0110           0
        25 PROA     2        ASN      OD1      O       -0.550000       15.9994           0
        26 PROA     2        ASN      ND2      NH2     -0.620000       14.0070           0
        27 PROA     2        ASN      HD21     H        0.320000       1.00800           0
        28 PROA     2        ASN      HD22     H        0.300000       1.00800           0
        29 PROA     2        ASN      C        C        0.510000       12.0110           0
        30 PROA     2        ASN      O        O       -0.510000       15.9994           0
        31 PROA     3        ARG      N        NH1     -0.470000       14.0070           0
        32 PROA     3        ARG      HN       H        0.310000       1.00800           0
        33 PROA     3        ARG      CA       CT1      0.700000E-01   12.0110           0
        34 PROA     3        ARG      HA       HB1      0.900000E-01   1.00800           0
        35 PROA     3        ARG      CB       CT2     -0.180000       12.0110           0
        36 PROA     3        ARG      HB1      HA2      0.900000E-01   1.00800           0
        37 PROA     3        ARG      HB2      HA2      0.900000E-01   1.00800           0
        38 PROA     3        ARG      CG       CT2     -0.180000       12.0110           0
        39 PROA     3        ARG      HG1      HA2      0.900000E-01   1.00800           0
        40 PROA     3        ARG      HG2      HA2      0.900000E-01   1.00800           0
        41 PROA     3        ARG      CD       CT2      0.200000       12.0110           0
        42 PROA     3        ARG      HD1      HA2      0.900000E-01   1.00800           0
        43 PROA     3        ARG      HD2      HA2      0.900000E-01   1.00800           0
        44 PROA     3        ARG      NE       NC2     -0.700000       14.0070           0
        45 PROA     3        ARG      HE       HC       0.440000       1.00800           0
        46 PROA     3        ARG      CZ       C        0.640000       12.0110           0
        47 PROA     3        ARG      NH1      NC2     -0.800000       14.0070           0
        48 PROA     3        ARG      HH11     HC       0.460000       1.00800           0
        49 PROA     3        ARG      HH12     HC       0.460000       1.00800           0
        50 PROA     3        ARG      NH2      NC2     -0.800000       14.0070           0
        51 PROA     3        ARG      HH21     HC       0.460000       1.00800           0
        52 PROA     3        ARG      HH22     HC       0.460000       1.00800           0
        53 PROA     3        ARG      C        C        0.510000       12.0110           0
        54 PROA     3        ARG      O        O       -0.510000       15.9994           0
        55 PROA     4        PRO      N        N       -0.290000       14.0070           0
        56 PROA     4        PRO      CD       CP3       0.00000       12.0110           0
        57 PROA     4        PRO      HD1      HA2      0.900000E-01   1.00800           0
        58 PROA     4        PRO      HD2      HA2      0.900000E-01   1.00800           0
        59 PROA     4        PRO      CA       CP1      0.200000E-01   12.0110           0
        60 PROA     4        PRO      HA       HB1      0.900000E-01   1.00800           0
        61 PROA     4        PRO      CB       CP2     -0.180000       12.0110           0
        62 PROA     4        PRO      HB1      HA2      0.900000E-01   1.00800           0
        63 PROA     4        PRO      HB2      HA2      0.900000E-01   1.00800           0
        64 PROA     4        PRO      CG       CP2     -0.180000       12.0110           0
        65 PROA     4        PRO      HG1      HA2      0.900000E-01   1.00800           0
        66 PROA     4        PRO      HG2      HA2      0.900000E-01   1.00800           0
        67 PROA     4        PRO      C        C        0.510000       12.0110           0
        68 PROA     4        PRO      O        O       -0.510000       15.9994           0
        69 PROA     5        ASN      N        NH1     -0.470000       14.0070           0
        70 PROA     5        ASN      HN       H        0.310000       1.00800           0
        71 PROA     5        ASN      CA       CT1      0.700000E-01   12.0110           0
        72 PROA     5        ASN      HA       HB1      0.900000E-01   1.00800           0
        73 PROA     5        ASN      CB       CT2     -0.180000       12.0110           0
        74 PROA     5        ASN      HB1      HA2      0.900000E-01   1.00800           0
        75 PROA     5        ASN      HB2      HA2      0.900000E-01   1.00800           0
        76 PROA     5        ASN      CG       CC       0.550000       12.0110           0
        77 PROA     5        ASN      OD1      O       -0.550000       15.9994           0
        78 PROA     5        ASN      ND2      NH2     -0.620000       14.0070           0
        79 PROA     5        ASN      HD21     H        0.320000       1.00800           0
        80 PROA     5        ASN      HD22     H        0.300000       1.00800           0
        81 PROA     5        ASN      C        C        0.510000       12.0110           0
        82 PROA     5        ASN      O        O       -0.510000       15.9994           0
        83 PROA     6        PRO      N        N       -0.290000       14.0070           0
        84 PROA     6        PRO      CD       CP3       0.00000       12.0110           0
        85 PROA     6        PRO      HD1      HA2      0.900000E-01   1.00800           0
        86 PROA     6        PRO      HD2      HA2      0.900000E-01   1.00800           0
        87 PROA     6        PRO      CA       CP1      0.200000E-01   12.0110           0
        88 PROA     6        PRO      HA       HB1      0.900000E-01   1.00800           0
        89 PROA     6        PRO      CB       CP2     -0.180000       12.0110           0
        90 PROA     6        PRO      HB1      HA2      0.900000E-01   1.00800           0
        91 PROA     6        PRO      HB2      HA2      0.900000E-01   1.00800           0
        92 PROA     6        PRO      CG       CP2     -0.180000       12.0110           0
        93 PROA     6        PRO      HG1      HA2      0.900000E-01   1.00800           0
        94 PROA     6        PRO      HG2      HA2      0.900000E-01   1.00800           0
        95 PROA     6        PRO      C        CC       0.340000       12.0110           0
        96 PROA     6        PRO      OT1      OC      -0.670000       15.9994           0
        97 PROA     6        PRO      OT2      OC      -0.670000       15.9994           0
        98 MEMB     1        POPC     N        NTL     -0.600000       14.0070           0
        99 MEMB     1        POPC     C12      CTL2    -0.100000       12.0110           0
       100 MEMB     1        POPC     H12A     HL       0.250000       1.00800           0
       101 MEMB     1        POPC     H12B     HL       0.250000       1.00800           0
       102 MEMB     1        POPC     C13      CTL5    -0.350000       12.0110           0
       103 MEMB     1        POPC     H13A     HL       0.250000       1.00800           0
       104 MEMB     1        POPC     H13B     HL       0.250000       1.00800           0
       105 MEMB     1        POPC     H13C     HL       0.250000       1.00800           0
       106 MEMB     1        POPC     C14      CTL5    -0.350000       12.0110           0
       107 MEMB     1        POPC     H14A     HL       0.250000       1.00800           0
       108 MEMB     1        POPC     H14B     HL       0.250000       1.00800           0
       109 MEMB     1        POPC     H14C     HL       0.250000       1.00800           0
       110 MEMB     1        POPC     C15      CTL5    -0.350000       12.0110           0
       111 MEMB     1        POPC     H15A     HL       0.250000       1.00800           0
       112 MEMB     1        POPC     H15B     HL       0.250000       1.00800           0
       113 MEMB     1        POPC     H15C     HL       0.250000       1.00800           0
       114 MEMB     1        POPC     C11      CTL2    -0.800000E-01   12.0110           0
       115 MEMB     1        POPC     H11A     HAL2     0.900000E-01   1.00800           0
       116 MEMB     1        POPC     H11B     HAL2     0.900000E-01   1.00800           0
       117 MEMB     1        POPC     P        PL        1.50000       30.9740           0
       118 MEMB     1        POPC     O13      O2L     -0.780000       15.9994           0
       119 MEMB     1        POPC     O14      O2L     -0.780000       15.9994           0
       120 MEMB     1        POPC     O12      OSLP    -0.570000       15.9994           0
       121 MEMB     1        POPC     O11      OSLP    -0.570000       15.9994           0
       122 MEMB     1        POPC     C1       CTL2    -0.800000E-01   12.0110           0
       123 MEMB     1        POPC     HA       HAL2     0.900000E-01   1.00800           0
       124 MEMB     1        POPC     HB       HAL2     0.900000E-01   1.00800           0
       125 MEMB     1        POPC     C2       CTL1     0.170000       12.0110           0
       126 MEMB     1        POPC     HS       HAL1     0.900000E-01   1.00800           0
       127 MEMB     1        POPC     O21      OSL     -0.490000       15.9994           0
       128 MEMB     1        POPC     C21      CL       0.900000       12.0110           0
       129 MEMB     1        POPC     O22      OBL     -0.630000       15.9994           0
       130 MEMB     1        POPC     C22      CTL2    -0.220000       12.0110           0
       131 MEMB     1        POPC     H2R      HAL2     0.900000E-01   1.00800           0
       132 MEMB     1        POPC     H2S      HAL2     0.900000E-01   1.00800           0
       133 MEMB     1        POPC     C3       CTL2     0.800000E-01   12.0110           0
       134 MEMB     1        POPC     HX       HAL2     0.900000E-01   1.00800           0
       135 MEMB     1        POPC     HY       HAL2     0.900000E-01   1.00800           0
       136 MEMB     1        POPC     O31      OSL     -0.490000       15.9994           0
       137 MEMB     1        POPC     C31      CL       0.900000       12.0110           0
       138 MEMB     1        POPC     O32      OBL     -0.630000       15.9994           0
       139 MEMB     1        POPC     C32      CTL2    -0.220000       12.0110           0
       140 MEMB     1        POPC     H2X      HAL2     0.900000E-01   1.00800           0
       141 MEMB     1        POPC     H2Y      HAL2     0.900000E-01   1.00800           0
       142 MEMB     1        POPC     C23      CTL2    -0.180000       12.0110           0
       143 MEMB     1        POPC     H3R      HAL2     0.900000E-01   1.00800           0
       144 MEMB     1        POPC     H3S      HAL2     0.900000E-01   1.00800           0
       145 MEMB     1        POPC     C24      CTL2    -0.180000       12.0110           0
       146 MEMB     1        POPC     H4R      HAL2     0.900000E-01   1.00800           0
       147 MEMB     1        POPC     H4S      HAL2     0.900000E-01   1.00800           0
       148 MEMB     1        POPC     C25      CTL2    -0.180000       12.0110           0
       149 MEMB     1        POPC     H5R      HAL2     0.900000E-01   1.00800           0
       150 MEMB     1        POPC     H5S      HAL2     0.900000E-01   1.00800           0
       151 MEMB     1        POPC     C26      CTL2    -0.180000       12.0110           0
       152 MEMB     1        POPC     H6R      HAL2     0.900000E-01   1.00800           0
       153 MEMB     1        POPC     H6S      HAL2     0.900000E-01   1.00800           0
       154 MEMB     1        POPC     C27      CTL2    -0.180000       12.0110           0
       155 MEMB     1        POPC     H7R      HAL2     0.900000E-01   1.00800           0
       156 MEMB     1        POPC     H7S      HAL2     0.900000E-01   1.00800           0
       157 MEMB     1        POPC     C28      CTL2    -0.180000       12.0110           0
       158 MEMB     1        POPC     H8R      HAL2     0.900000E-01   1.00800           0
       159 MEMB     1        POPC     H8S      HAL2     0.900000E-01   1.00800           0
       160 MEMB     1        POPC     C29      CEL1    -0.150000       12.0110           0
       161 MEMB     1        POPC     H91      HEL1     0.150000       1.00800           0
       162 MEMB     1        POPC     C210     CEL1    -0.150000       12.0110           0
       163 MEMB     1        POPC     H101     HEL1     0.150000       1.00800           0
       164 MEMB     1        POPC     C211     CTL2    -0.180000       12.0110           0
       165 MEMB     1        POPC     H11R     HAL2     0.900000E-01   1.00800           0
       166 MEMB     1        POPC     H11S     HAL2     0.900000E-01   1.00800           0
       167 MEMB     1        POPC     C212     CTL2    -0.180000       12.0110           0
       168 MEMB     1        POPC     H12R     HAL2     0.900000E-01   1.00800           0
       169 MEMB     1        POPC     H12S     HAL2     0.900000E-01   1.00800           0
       170 MEMB     1        POPC     C213     CTL2    -0.180000       12.0110           0
       171 MEMB     1        POPC     H13R     HAL2     0.900000E-01   1.00800           0
       172 MEMB     1        POPC     H13S     HAL2     0.900000E-01   1.00800           0
       173 MEMB     1        POPC     C214     CTL2    -0.180000       12.0110           0
       174 MEMB     1        POPC     H14R     HAL2     0.900000E-01   1.00800           0
       175 MEMB     1        POPC     H14S     HAL2     0.900000E-01   1.00800           0
       176 MEMB     1        POPC     C215     CTL2    -0.180000       12.0110           0
       177 MEMB     1        POPC     H15R     HAL2     0.900000E-01   1.00800           0
       178 MEMB     1        POPC     H15S     HAL2     0.900000E-01   1.00800           0
       179 MEMB     1        POPC     C216     CTL2    -0.180000       12.0110           0
       180 MEMB     1        POPC     H16R     HAL2     0.900000E-01   1.00800           0
       181 MEMB     1        POPC     H16S     HAL2     0.900000E-01   1.00800           0
       182 MEMB     1        POPC     C217     CTL2    -0.180000       12.0110           0
       183 MEMB     1        POPC     H17R     HAL2     0.900000E-01   1.00800           0
       184 MEMB     1        POPC     H17S     HAL2     0.900000E-01   1.00800           0
       185 MEMB     1        POPC     C218     CTL3    -0.270000       12.0110           0
       186 MEMB     1        POPC     H18R     HAL3     0.900000E-01   1.00800           0
       187 MEMB     1        POPC     H18S     HAL3     0.900000E-01   1.00800           0
       188 MEMB     1        POPC     H18T     HAL3     0.900000E-01   1.00800           0
       189 MEMB     1        POPC     C33      CTL2    -0.180000       12.0110           0
       190 MEMB     1        POPC     H3X      HAL2     0.900000E-01   1.00800           0
       191 MEMB     1        POPC     H3Y      HAL2     0.900000E-01   1.00800           0
       192 MEMB     1        POPC     C34      CTL2    -0.180000       12.0110           0
       193 MEMB     1        POPC     H4X      HAL2     0.900000E-01   1.00800           0
       194 MEMB     1        POPC     H4Y      HAL2     0.900000E-01   1.00800           0
       195 MEMB     1        POPC     C35      CTL2    -0.180000       12.0110           0
       196 MEMB     1        POPC     H5X      HAL2     0.900000E-01   1.00800           0
       197 MEMB     1        POPC     H5Y      HAL2     0.900000E-01   1.00800           0
       198 MEMB     1        POPC     C36      CTL2    -0.180000       12.0110           0
       199 MEMB     1        POPC     H6X      HAL2     0.900000E-01   1.00800           0
       200 MEMB     1        POPC     H6Y      HAL2     0.900000E-01   1.00800           0
       201 MEMB     1        POPC     C37      CTL2    -0.180000       12.0110           0
       202 MEMB     1        POPC     H7X      HAL2     0.900000E-01   1.00800           0
       203 MEMB     1        POPC     H7Y      HAL2     0.900000E-01   1.00800           0
       204 MEMB     1        POPC     C38      CTL2    -0.180000       12.0110           0
       205 MEMB     1        POPC     H8X      HAL2     0.900000E-01   1.00800           0
       206 MEMB     1        POPC     H8Y      HAL2     0.900000E-01   1.00800           0
       207 MEMB     1        POPC     C39      CTL2    -0.180000       12.0110           0
       208 MEMB     1        POPC     H9X      HAL2     0.900000E-01   1.00800           0
       209 MEMB     1        POPC     H9Y      HAL2     0.900000E-01   1.00800           0
       210 MEMB     1        POPC     C310     CTL2    -0.180000       12.0110           0
       211 MEMB     1        POPC     H10X     HAL2     0.900000E-01   1.00800           0
       212 MEMB     1        POPC     H10Y     HAL2     0.900000E-01   1.00800           0
       213 MEMB     1        POPC     C311     CTL2    -0.180000       12.0110           0
       214 MEMB     1        POPC     H11X     HAL2     0.900000E-01   1.00800           0
       215 MEMB     1        POPC     H11Y     HAL2     0.900000E-01   1.00800           0
       216 MEMB     1        POPC     C312     CTL2    -0.180000       12.0110           0
       217 MEMB     1        POPC     H12X     HAL2     0.900000E-01   1.00800           0
       218 MEMB     1        POPC     H12Y     HAL2     0.900000E-01   1.00800           0
       219 MEMB     1        POPC     C313     CTL2    -0.180000       12.0110           0
       220 MEMB     1        POPC     H13X     HAL2     0.900000E-01   1.00800           0
       221 MEMB     1        POPC     H13Y     HAL2     0.900000E-01   1.00800           0
       222 MEMB     1        POPC     C314     CTL2    -0.180000       12.0110           0
       223 MEMB     1        POPC     H14X     HAL2     0.900000E-01   1.00800           0
       224 MEMB     1        POPC     H14Y     HAL2     0.900000E-01   1.00800           0
       225 MEMB     1        POPC     C315     CTL2    -0.180000       12.0110           0
       226 MEMB     1        POPC     H15X     HAL2     0.900000E-01   1.00800           0
       227 MEMB     1        POPC     H15Y     HAL2     0.900000E-01   1.00800           0
       228 MEMB     1        POPC     C316     CTL3    -0.270000       12.0110           0
       229 MEMB     1        POPC     H16X     HAL3     0.900000E-01   1.00800           0
       230 MEMB     1        POPC     H16Y     HAL3     0.900000E-01   1.00800           0
       231 MEMB     1        POPC     H16Z     HAL3     0.900000E-01   1.00800           0
       232 MEMB     2        POPC     N        NTL     -0.600000       14.0070           0
       233 MEMB     2        POPC     C12      CTL2    -0.100000       12.0110           0
       234 MEMB     2        POPC     H12A     HL       0.250000       1.00800           0
       235 MEMB     2        POPC     H12B     HL       0.250000       1.00800           0
       236 MEMB     2        POPC     C13      CTL5    -0.350000       12.0110           0
       237 MEMB     2        POPC     H13A     HL       0.250000       1.00800           0
       238 MEMB     2        POPC     H13B     HL       0.250000       1.00800           0
       239 MEMB     2        POPC     H13C     HL       0.250000       1.00800           0
       240 MEMB     2        POPC     C14      CTL5    -0.350000       12.0110           0
       241 MEMB     2        POPC     H14A     HL       0.250000       1.00800           0
       242 MEMB     2        POPC     H14B     HL       0.250000       1.00800           0
       243 MEMB     2        POPC     H14C     HL       0.250000       1.00800           0
       244 MEMB     2        POPC     C15      CTL5    -0.350000       12.0110           0
       245 MEMB     2        POPC     H15A     HL       0.250000       1.00800           0
       246 MEMB     2        POPC     H15B     HL       0.250000       1.00800           0
       247 MEMB     2        POPC     H15C     HL       0.250000       1.00800           0
       248 MEMB     2        POPC     C11      CTL2    -0.800000E-01   12.0110           0
       249 MEMB     2        POPC     H11A     HAL2     0.900000E-01   1.00800           0
       250 MEMB     2        POPC     H11B     HAL2     0.900000E-01   1.00800           0
       251 MEMB     2        POPC     P        PL        1.50000       30.9740           0
       252 MEMB     2        POPC     O13      O2L     -0.780000       15.9994           0
       253 MEMB     2        POPC     O14      O2L     -0.780000       15.9994           0
       254 MEMB     2        POPC     O12      OSLP    -0.570000       15.9994           0
       255 MEMB     2        POPC     O11      OSLP    -0.570000       15.9994           0
       256 MEMB     2        POPC     C1       CTL2    -0.800000E-01   12.0110           0
       257 MEMB     2        POPC     HA       HAL2     0.900000E-01   1.00800           0
       258 MEMB     2        POPC     HB       HAL2     0.900000E-01   1.00800           0
       259 MEMB     2        POPC     C2       CTL1     0.170000       12.0110           0
       260 MEMB     2        POPC     HS       HAL1     0.900000E-01   1.00800           0
       261 MEMB     2        POPC     O21      OSL     -0.490000       15.9994           0
       262 MEMB     2        POPC     C21      CL       0.900000       12.0110           0
       263 MEMB     2        POPC     O22      OBL     -0.630000       15.9994           0
       264 MEMB     2        POPC     C22      CTL2    -0.220000       12.0110           0
       265 MEMB     2        POPC     H2R      HAL2     0.900000E-01   1.00800           0
       266 MEMB     2        POPC     H2S      HAL2     0.900000E-01   1.00800           0
       267 MEMB     2        POPC     C3       CTL2     0.800000E-01   12.0110           0
       268 MEMB     2        POPC     HX       HAL2     0.900000E-01   1.00800           0
       269 MEMB     2        POPC     HY       HAL2     0.900000E-01   1.00800           0
       270 MEMB     2        POPC     O31      OSL     -0.490000       15.9994           0
       271 MEMB     2        POPC     C31      CL       0.900000       12.0110           0
       272 MEMB     2        POPC     O32      OBL     -0.630000       15.9994           0
       273 MEMB     2        POPC     C32      CTL2    -0.220000       12.0110           0
       274 MEMB     2        POPC     H2X      HAL2     0.900000E-01   1.00800           0
       275 MEMB     2        POPC     H2Y      HAL2     0.900000E-01   1.00800           0
       276 MEMB     2        POPC     C23      CTL2    -0.180000       12.0110           0
       277 MEMB     2        POPC     H3R      HAL2     0.900000E-01   1.00800           0
       278 MEMB     2        POPC     H3S      HAL2     0.900000E-01   1.00800           0
       279 MEMB     2        POPC     C24      CTL2    -0.180000       12.0110           0
       280 MEMB     2        POPC     H4R      HAL2     0.900000E-01   1.00800           0
       281 MEMB     2        POPC     H4S      HAL2     0.900000E-01   1.00800           0
       282 MEMB     2        POPC     C25      CTL2    -0.180000       12.0110           0
       283 MEMB     2        POPC     H5R      HAL2     0.900000E-01   1.00800           0
       284 MEMB     2        POPC     H5S      HAL2     0.900000E-01   1.00800           0
       285 MEMB     2        POPC     C26      CTL2    -0.180000       12.0110           0
       286 MEMB     2        POPC     H6R      HAL2     0.900000E-01   1.00800           0
       287 MEMB     2        POPC     H6S      HAL2     0.900000E-01   1.00800           0
       288 MEMB     2        POPC     C27      CTL2    -0.180000       12.0110           0
       289 MEMB     2        POPC     H7R      HAL2     0.900000E-01   1.00800           0
       290 MEMB     2        POPC     H7S      HAL2     0.900000E-01   1.00800           0
       291 MEMB     2        POPC     C28      CTL2    -0.180000       12.0110           0
       292 MEMB     2        POPC     H8R      HAL2     0.900000E-01   1.00800           0
       293 MEMB     2        POPC     H8S      HAL2     0.900000E-01   1.00800           0
       294 MEMB     2        POPC     C29      CEL1    -0.150000       12.0110           0
       295 MEMB     2        POPC     H91      HEL1     0.150000       1.00800           0
       296 MEMB     2        POPC     C210     CEL1    -0.150000       12.0110           0
       297 MEMB     2        POPC     H101     HEL1     0.150000       1.00800           0
       298 MEMB     2        POPC     C211     CTL2    -0.180000       12.0110           0
       299 MEMB     2        POPC     H11R     HAL2     0.900000E-01   1.00800           0
       300 MEMB     2        POPC     H11S     HAL2     0.900000E-01   1.00800           0
       301 MEMB     2        POPC     C212     CTL2    -0.180000       12.0110           0
       302 MEMB     2        POPC     H12R     HAL2     0.900000E-01   1.00800           0
       303 MEMB     2        POPC     H12S     HAL2     0.900000E-01   1.00800           0
       304 MEMB     2        POPC     C213     CTL2    -0.180000       12.0110           0
       305 MEMB     2        POPC     H13R     HAL2     0.900000E-01   1.00800           0
       306 MEMB     2        POPC     H13S     HAL2     0.900000E-01   1.00800           0
       307 MEMB     2        POPC     C214     CTL2    -0.180000       12.0110           0
       308 MEMB     2        POPC     H14R     HAL2     0.900000E-01   1.00800           0
       309 MEMB     2        POPC     H14S     HAL2     0.900000E-01   1.00800           0
       310 MEMB     2        POPC     C215     CTL2    -0.180000       12.0110           0
       311 MEMB     2        POPC     H15R     HAL2     0.900000E-01   1.00800           0
       312 MEMB     2        POPC     H15S     HAL2     0.900000E-01   1.00800           0
       313 MEMB     2        POPC     C216     CTL2    -0.180000       12.0110           0
       314 MEMB     2        POPC     H16R     HAL2     0.900000E-01   1.00800           0
       315 MEMB     2        POPC     H16S     HAL2     0.900000E-01   1.00800           0
       316 MEMB     2        POPC     C217     CTL2    -0.180000       12.0110           0
       317 MEMB     2        POPC     H17R     HAL2     0.900000E-01   1.00800           0
       318 MEMB     2        POPC     H17S     HAL2     0.900000E-01   1.00800           0
       319 MEMB     2        POPC     C218     CTL3    -0.270000       12.0110           0
       320 MEMB     2        POPC     H18R     HAL3     0.900000E-01   1.00800           0
       321 MEMB     2        POPC     H18S     HAL3     0.900000E-01   1.00800           0
       322 MEMB     2        POPC     H18T     HAL3     0.900000E-01   1.00800           0
       323 MEMB     2        POPC     C33      CTL2    -0.180000       12.0110           0
       324 MEMB     2        POPC     H3X      HAL2     0.900000E-01   1.00800           0
       325 MEMB     2        POPC     H3Y      HAL2     0.900000E-01   1.00800           0
       326 MEMB     2        POPC     C34      CTL2    -0.180000       12.0110           0
       327 MEMB     2        POPC     H4X      HAL2     0.900000E-01   1.00800           0
       328 MEMB     2        POPC     H4Y      HAL2     0.900000E-01   1.00800           0
       329 MEMB     2        POPC     C35      CTL2    -0.180000       12.0110           0
       330 MEMB     2        POPC     H5X      HAL2     0.900000E-01   1.00800           0
       331 MEMB     2        POPC     H5Y      HAL2     0.900000E-01   1.00800           0
       332 MEMB     2        POPC     C36      CTL2    -0.180000       12.0110           0
       333 MEMB     2        POPC     H6X      HAL2     0.900000E-01   1.00800           0
       334 MEMB     2        POPC     H6Y      HAL2     0.900000E-01   1.00800           0
       335 MEMB     2        POPC     C37      CTL2    -0.180000       12.0110           0
       336 MEMB     2        POPC     H7X      HAL2     0.900000E-01   1.00800           0
       337 MEMB     2        POPC     H7Y      HAL2     0.900000E-01   1.00800           0
       338 MEMB     2        POPC     C38      CTL2    -0.180000       12.0110           0
       339 MEMB     2        POPC     H8X      HAL2     0.900000E-01   1.00800           0
       340 MEMB     2        POPC     H8Y      HAL2     0.900000E-01   1.00800           0
       341 MEMB     2        POPC     C39      CTL2    -0.180000       12.0110           0
       342 MEMB     2        POPC     H9X      HAL2     0.900000E-01   1.00800           0
       343 MEMB     2        POPC     H9Y      HAL2     0.900000E-01   1.00800           0
       344 MEMB     2        POPC     C310     CTL2    -0.180000       12.0110           0
       345 MEMB     2        POPC     H10X     HAL2     0.900000E-01   1.00800           0
       346 MEMB     2        POPC     H10Y     HAL2     0.900000E-01   1.00800           0
       347 MEMB     2        POPC     C311     CTL2    -0.180000       12.0110           0
       348 MEMB     2        POPC     H11X     HAL2     0.900000E-01   1.00800           0
       349 MEMB     2        POPC     H11Y     HAL2     0.900000E-01   1.00800           0
       350 MEMB     2        POPC     C312     CTL2    -0.180000       12.0110           0
       351 MEMB     2        POPC     H12X     HAL2     0.900000E-01   1.00800           0
       352 MEMB     2        POPC     H12Y     HAL2     0.900000E-01   1.00800           0
       353 MEMB     2        POPC     C313     CTL2    -0.180000       12.0110           0
       354 MEMB     2        POPC     H13X     HAL2     0.900000E-01   1.00800           0
       355 MEMB     2        POPC     H13Y     HAL2     0.900000E-01   1.00800           0
       356 MEMB     2        POPC     C314     CTL2    -0.180000       12.0110           0
       357 MEMB     2        POPC     H14X     HAL2     0.900000E-01   1.00800           0
       358 MEMB     2        POPC     H14Y     HAL2     0.900000E-01   1.00800           0
       359 MEMB     2        POPC     C315     CTL2    -0.180000       12.0110           0
       360 MEMB     2        POPC     H15X     HAL2     0.900000E-01   1.00800           0
       361 MEMB     2        POPC     H15Y     HAL2     0.900000E-01   1.00800           0
       362 MEMB     2        POPC     C316     CTL3    -0.270000       12.0110           0
       363 MEMB     2        POPC     H16X     HAL3     0.900000E-01   1.00800           0
       364 MEMB     2        POPC     H16Y     HAL3     0.900000E-01   1.00800           0
       365 MEMB     2        POPC     H16Z     HAL3     0.900000E-01   1.00800           0
       366 MEMB     3        POPC     N        NTL     -0.600000       14.0070           0
       367 MEMB     3        POPC     C12      CTL2    -0.100000       12.0110           0
       368 MEMB     3        POPC     H12A     HL       0.250000       1.00800           0
       369 MEMB     3        POPC     H12B     HL       0.250000       1.00800           0
       370 MEMB     3        POPC     C13      CTL5    -0.350000       12.0110           0
       371 MEMB     3        POPC     H13A     HL       0.250000       1.00800           0
       372 MEMB     3        POPC     H13B     HL       0.250000       1.00800           0
       373 MEMB     3        POPC     H13C     HL       0.250000       1.00800           0
       374 MEMB     3        POPC     C14      CTL5    -0.350000       12.0110           0
       375 MEMB     3        POPC     H14A     HL       0.250000       1.00800           0
       376 MEMB     3        POPC     H14B     HL       0.250000       1.00800           0
       377 MEMB     3        POPC     H14C     HL       0.250000       1.00800           0
       378 MEMB     3        POPC     C15      CTL5    -0.350000       12.0110           0
       379 MEMB     3        POPC     H15A     HL       0.250000       1.00800           0
       380 MEMB     3        POPC     H15B     HL       0.250000       1.00800           0
       381 MEMB     3        POPC     H15C     HL       0.250000       1.00800           0
       382 MEMB     3        POPC     C11      CTL2    -0.800000E-01   12.0110           0
       383 MEMB     3        POPC     H11A     HAL2     0.900000E-01   1.00800           0
       384 MEMB     3        POPC     H11B     HAL2     0.900000E-01   1.00800           0
       385 MEMB     3        POPC     P        PL        1.50000       30.9740           0
       386 MEMB     3        POPC     O13      O2L     -0.780000       15.9994           0
       387 MEMB     3        POPC     O14      O2L     -0.780000       15.9994           0
       388 MEMB     3        POPC     O12      OSLP    -0.570000       15.9994           0
       389 MEMB     3        POPC     O11      OSLP    -0.570000       15.9994           0
       390 MEMB     3        POPC     C1       CTL2    -0.800000E-01   12.0110           0
       391 MEMB     3        POPC     HA       HAL2     0.900000E-01   1.00800           0
       392 MEMB     3        POPC     HB       HAL2     0.900000E-01   1.00800           0
       393 MEMB     3        POPC     C2       CTL1     0.170000       12.0110           0
       394 MEMB     3        POPC     HS       HAL1     0.900000E-01   1.00800           0
       395 MEMB     3        POPC     O21      OSL     -0.490000       15.9994           0
       396 MEMB     3        POPC     C21      CL       0.900000       12.0110           0
       397 MEMB     3        POPC     O22      OBL     -0.630000       15.9994           0
       398 MEMB     3        POPC     C22      CTL2    -0.220000       12.0110           0
       399 MEMB     3        POPC     H2R      HAL2     0.900000E-01   1.00800           0
       400 MEMB     3        POPC     H2S      HAL2     0.900000E-01   1.00800           0
       401 MEMB     3        POPC     C3       CTL2     0.800000E-01   12.0110           0
       402 MEMB     3        POPC     HX       HAL2     0.900000E-01   1.00800           0
       403 MEMB     3        POPC     HY       HAL2     0.900000E-01   1.00800           0
       404 MEMB     3        POPC     O31      OSL     -0.490000       15.9994           0
       405 MEMB     3        POPC     C31      CL       0.900000       12.0110           0
       406 MEMB     3        POPC     O32      OBL     -0.630000       15.9994           0
       407 MEMB     3        POPC     C32      CTL2    -0.220000       12.0110           0
       408 MEMB     3        POPC     H2X      HAL2     0.900000E-01   1.00800           0
       409 MEMB     3        POPC     H2Y      HAL2     0.900000E-01   1.00800           0
       410 MEMB     3        POPC     C23      CTL2    -0.180000       12.0110           0
       411 MEMB     3        POPC     H3R      HAL2     0.900000E-01   1.00800           0
       412 MEMB     3        POPC     H3S      HAL2     0.900000E-01   1.00800           0
       413 MEMB     3        POPC     C24      CTL2    -0.180000       12.0110           0
       414 MEMB     3        POPC     H4R      HAL2     0.900000E-01   1.00800           0
       415 MEMB     3        POPC     H4S      HAL2     0.900000E-01   1.00800           0
       416 MEMB     3        POPC     C25      CTL2    -0.180000       12.0110           0
       417 MEMB     3        POPC     H5R      HAL2     0.900000E-01   1.00800           0
       418 MEMB     3        POPC     H5S      HAL2     0.900000E-01   1.00800           0
       419 MEMB     3        POPC     C26      CTL2    -0.180000       12.0110           0
       420 MEMB     3        POPC     H6R      HAL2     0.900000E-01   1.00800           0
       421 MEMB     3        POPC     H6S      HAL2     0.900000E-01   1.00800           0
       422 MEMB     3        POPC     C27      CTL2    -0.180000       12.0110           0
       423 MEMB     3        POPC     H7R      HAL2     0.900000E-01   1.00800           0
       424 MEMB     3        POPC     H7S      HAL2     0.900000E-01   1.00800           0
       425 MEMB     3        POPC     C28      CTL2    -0.180000       12.0110           0
       426 MEMB     3        POPC     H8R      HAL2     0.900000E-01   1.00800           0
       427 MEMB     3        POPC     H8S      HAL2     0.900000E-01   1.00800           0
       428 MEMB     3        POPC     C29      CEL1    -0.150000       12.0110           0
       429 MEMB     3        POPC     H91      HEL1     0.150000       1.00800           0
       430 MEMB     3        POPC     C210     CEL1    -0.150000       12.0110           0
       431 MEMB     3        POPC     H101     HEL1     0.150000       1.00800           0
       432 MEMB     3        POPC     C211     CTL2    -0.180000       12.0110           0
       433 MEMB     3        POPC     H11R     HAL2     0.900000E-01   1.00800           0
       434 MEMB     3        POPC     H11S     HAL2     0.900000E-01   1.00800           0
       435 MEMB     3        POPC     C212     CTL2    -0.180000       12.0110           0
       436 MEMB     3        POPC     H12R     HAL2     0.900000E-01   1.00800           0
       437 MEMB     3        POPC     H12S     HAL2     0.900000E-01   1.00800           0
       438 MEMB     3        POPC     C213     CTL2    -0.180000       12.0110           0
       439 MEMB     3        POPC     H13R     HAL2     0.900000E-01   1.00800           0
       440 MEMB     3        POPC     H13S     HAL2     0.900000E-01   1.00800           0
       441 MEMB     3        POPC     C214     CTL2    -0.180000       12.0110           0
       442 MEMB     3        POPC     H14R     HAL2     0.900000E-01   1.00800           0
       443 MEMB     3        POPC     H14S     HAL2     0.900000E-01   1.00800           0
       444 MEMB     3        POPC     C215     CTL2    -0.180000       12.0110           0
       445 MEMB     3        POPC     H15R     HAL2     0.900000E-01   1.00800           0
       446 MEMB     3        POPC     H15S     HAL2     0.900000E-01   1.00800           0
       447 MEMB     3        POPC     C216     CTL2    -0.180000       12.0110           0
       448 MEMB     3        POPC     H16R     HAL2     0.900000E-01   1.00800           0
       449 MEMB     3        POPC     H16S     HAL2     0.900000E-01   1.00800           0
       450 MEMB     3        POPC     C217     CTL2    -0.180000       12.0110           0
       451 MEMB     3        POPC     H17R     HAL2     0.900000E-01   1.00800           0
       452 MEMB     3        POPC     H17S     HAL2     0.900000E-01   1.00800           0
       453 MEMB     3        POPC     C218     CTL3    -0.270000       12.0110           0
       454 MEMB     3        POPC     H18R     HAL3     0.900000E-01   1.00800           0
       455 MEMB     3        POPC     H18S     HAL3     0.900000E-01   1.00800           0
       456 MEMB     3        POPC     H18T     HAL3     0.900000E-01   1.00800           0
       457 MEMB     3        POPC     C33      CTL2    -0.180000       12.0110           0
       458 MEMB     3        POPC     H3X      HAL2     0.900000E-01   1.00800           0
       459 MEMB     3        POPC     H3Y      HAL2     0.900000E-01   1.00800           0
       460 MEMB     3        POPC     C34      CTL2    -0.180000       12.0110           0
       461 MEMB     3        POPC     H4X      HAL2     0.900000E-01   1.00800           0
       462 MEMB     3        POPC     H4Y      HAL2     0.900000E-01   1.00800           0
       463 MEMB     3        POPC     C35      CTL2    -0.180000       12.0110           0
       464 MEMB     3        POPC     H5X      HAL2     0.900000E-01   1.00800           0
       465 MEMB     3        POPC     H5Y      HAL2     0.900000E-01   1.00800           0
       466 MEMB     3        POPC     C36      CTL2    -0.180000       12.0110           0
       467 MEMB     3        POPC     H6X      HAL2     0.900000E-01   1.00800           0
       468 MEMB     3        POPC     H6Y      HAL2     0.900000E-01   1.00800           0
       469 MEMB     3        POPC     C37      CTL2    -0.180000       12.0110           0
       470 MEMB     3        POPC     H7X      HAL2     0.900000E-01   1.00800           0
       471 MEMB     3        POPC     H7Y      HAL2     0.900000E-01   1.00800           0
       472 MEMB     3        POPC     C38      CTL2    -0.180000       12.0110           0
       473 MEMB     3        POPC     H8X      HAL2     0.900000E-01   1.00800           0
       474 MEMB     3        POPC     H8Y      HAL2     0.900000E-01   1.00800           0
       475 MEMB     3        POPC     C39      CTL2    -0.180000       12.0110           0
       476 MEMB     3        POPC     H9X      HAL2     0.900000E-01   1.00800           0
       477 MEMB     3        POPC     H9Y      HAL2     0.900000E-01   1.00800           0
       478 MEMB     3        POPC     C310     CTL2    -0.180000       12.0110           0
       479 MEMB     3        POPC     H10X     HAL2     0.900000E-01   1.00800           0
       480 MEMB     3        POPC     H10Y     HAL2     0.900000E-01   1.00800           0
       481 MEMB     3        POPC     C311     CTL2    -0.180000       12.0110           0
       482 MEMB     3        POPC     H11X     HAL2     0.900000E-01   1.00800           0
       483 MEMB     3        POPC     H11Y     HAL2     0.900000E-01   1.00800           0
       484 MEMB     3        POPC     C312     CTL2    -0.180000       12.0110           0
       485 MEMB     3        POPC     H12X     HAL2     0.900000E-01   1.00800           0
       486 MEMB     3        POPC     H12Y     HAL2     0.900000E-01   1.00800           0
       487 MEMB     3        POPC     C313     CTL2    -0.180000       12.0110           0
       488 MEMB     3        POPC     H13X     HAL2     0.900000E-01   1.00800           0
       489 MEMB     3        POPC     H13Y     HAL2     0.900000E-01   1.00800           0
       490 MEMB     3        POPC     C314     CTL2    -0.180000       12.0110           0
       491 MEMB     3        POPC     H14X     HAL2     0.900000E-01   1.00800           0
       492 MEMB     3        POPC     H14Y     HAL2     0.900000E-01   1.00800           0
       493 MEMB     3        POPC     C315     CTL2    -0.180000       12.0110           0
       494 MEMB     3        POPC     H15X     HAL2     0.900000E-01   1.00800           0
       495 MEMB     3        POPC     H15Y     HAL2     0.900000E-01   1.00800           0
       496 MEMB     3        POPC     C316     CTL3    -0.270000       12.0110           0
       497 MEMB     3        POPC     H16X     HAL3     0.900000E-01   1.00800           0
       498 MEMB     3        POPC     H16Y     HAL3     0.900000E-01   1.00800           0
       499 MEMB     3        POPC     H16Z     HAL3     0.900000E-01   1.00800           0
       500 MEMB     4        POPC     N        NTL     -0.600000       14.0070           0
       501 MEMB     4        POPC     C12      CTL2    -0.100000       12.0110           0
       502 MEMB     4        POPC     H12A     HL       0.250000       1.00800           0
       503 MEMB     4        POPC     H12B     HL       0.250000       1.00800           0
       504 MEMB     4        POPC     C13      CTL5    -0.350000       12.0110           0
       505 MEMB     4        POPC     H13A     HL       0.250000       1.00800           0
       506 MEMB     4        POPC     H13B     HL       0.250000       1.00800           0
       507 MEMB     4        POPC     H13C     HL       0.250000       1.00800           0
       508 MEMB     4        POPC     C14      CTL5    -0.350000       12.0110           0
       509 MEMB     4        POPC     H14A     HL       0.250000       1.00800           0
       510 MEMB     4        POPC     H14B     HL       0.250000       1.00800           0
       511 MEMB     4        POPC     H14C     HL       0.250000       1.00800           0
       512 MEMB     4        POPC     C15      CTL5    -0.350000       12.0110           0
       513 MEMB     4        POPC     H15A     HL       0.250000       1.00800           0
       514 MEMB     4        POPC     H15B     HL       0.250000       1.00800           0
       515 MEMB     4        POPC     H15C     HL       0.250000       1.00800           0
       516 MEMB     4        POPC     C11      CTL2    -0.800000E-01   12.0110           0
       517 MEMB     4        POPC     H11A     HAL2     0.900000E-01   1.00800           0
       518 MEMB     4        POPC     H11B     HAL2     0.900000E-01   1.00800           0
       519 MEMB     4        POPC     P        PL        1.50000       30.9740           0
       520 MEMB     4        POPC     O13      O2L     -0.780000       15.9994           0
       521 MEMB     4        POPC     O14      O2L     -0.780000       15.9994           0
       522 MEMB     4        POPC     O12      OSLP    -0.570000       15.9994           0
       523 MEMB     4        POPC     O11      OSLP    -0.570000       15.9994           0
       524 MEMB     4        POPC     C1       CTL2    -0.800000E-01   12.0110           0
       525 MEMB     4        POPC     HA       HAL2     0.900000E-01   1.00800           0
       526 MEMB     4        POPC     HB       HAL2     0.900000E-01   1.00800           0
       527 MEMB     4        POPC     C2       CTL1     0.170000       12.0110           0
       528 MEMB     4        POPC     HS       HAL1     0.900000E-01   1.00800           0
       529 MEMB     4        POPC     O21      OSL     -0.490000       15.9994           0
       530 MEMB     4        POPC     C21      CL       0.900000       12.0110           0
       531 MEMB     4        POPC     O22      OBL     -0.630000       15.9994           0
       532 MEMB     4        POPC     C22      CTL2    -0.220000       12.0110           0
       533 MEMB     4        POPC     H2R      HAL2     0.900000E-01   1.00800           0
       534 MEMB     4        POPC     H2S      HAL2     0.900000E-01   1.00800           0
       535 MEMB     4        POPC     C3       CTL2     0.800000E-01   12.0110           0
       536 MEMB     4        POPC     HX       HAL2     0.900000E-01   1.00800           0
       537 MEMB     4        POPC     HY       HAL2     0.900000E-01   1.00800           0
       538 MEMB     4        POPC     O31      OSL     -0.490000       15.9994           0
       539 MEMB     4        POPC     C31      CL       0.900000       12.0110           0
       540 MEMB     4        POPC     O32      OBL     -0.630000       15.9994           0
       541 MEMB     4        POPC     C32      CTL2    -0.220000       12.0110           0
       542 MEMB     4        POPC     H2X      HAL2     0.900000E-01   1.00800           0
       543 MEMB     4        POPC     H2Y      HAL2     0.900000E-01   1.00800           0
       544 MEMB     4        POPC     C23      CTL2    -0.180000       12.0110           0
       545 MEMB     4        POPC     H3R      HAL2     0.900000E-01   1.00800           0
       546 MEMB     4        POPC     H3S      HAL2     0.900000E-01   1.00800           0
       547 MEMB     4        POPC     C24      CTL2    -0.180000       12.0110           0
       548 MEMB     4        POPC     H4R      HAL2     0.900000E-01   1.00800           0
       549 MEMB     4        POPC     H4S      HAL2     0.900000E-01   1.00800           0
       550 MEMB     4        POPC     C25      CTL2    -0.180000       12.0110           0
       551 MEMB     4        POPC     H5R      HAL2     0.900000E-01   1.00800           0
       552 MEMB     4        POPC     H5S      HAL2     0.900000E-01   1.00800           0
       553 MEMB     4        POPC     C26      CTL2    -0.180000       12.0110           0
       554 MEMB     4        POPC     H6R      HAL2     0.900000E-01   1.00800           0
       555 MEMB     4        POPC     H6S      HAL2     0.900000E-01   1.00800           0
       556 MEMB     4        POPC     C27      CTL2    -0.180000       12.0110           0
       557 MEMB     4        POPC     H7R      HAL2     0.900000E-01   1.00800           0
       558 MEMB     4        POPC     H7S      HAL2     0.900000E-01   1.00800           0
       559 MEMB     4        POPC     C28      CTL2    -0.180000       12.0110           0
       560 MEMB     4        POPC     H8R      HAL2     0.900000E-01   1.00800           0
       561 MEMB     4        POPC     H8S      HAL2     0.900000E-01   1.00800           0
       562 MEMB     4        POPC     C29      CEL1    -0.150000       12.0110           0
       563 MEMB     4        POPC     H91      HEL1     0.150000       1.00800           0
       564 MEMB     4        POPC     C210     CEL1    -0.150000       12.0110           0
       565 MEMB     4        POPC     H101     HEL1     0.150000       1.00800           0
       566 MEMB     4        POPC     C211     CTL2    -0.180000       12.0110           0
       567 MEMB     4        POPC     H11R     HAL2     0.900000E-01   1.00800           0
       568 MEMB     4        POPC     H11S     HAL2     0.900000E-01   1.00800           0
       569 MEMB     4        POPC     C212     CTL2    -0.180000       12.0110           0
       570 MEMB     4        POPC     H12R     HAL2     0.900000E-01   1.00800           0
       571 MEMB     4        POPC     H12S     HAL2     0.900000E-01   1.00800           0
       572 MEMB     4        POPC     C213     CTL2    -0.180000       12.0110           0
       573 MEMB     4        POPC     H13R     HAL2     0.900000E-01   1.00800           0
       574 MEMB     4        POPC     H13S     HAL2     0.900000E-01   1.00800           0
       575 MEMB     4        POPC     C214     CTL2    -0.180000       12.0110           0
       576 MEMB     4        POPC     H14R     HAL2     0.900000E-01   1.00800           0
       577 MEMB     4        POPC     H14S     HAL2     0.900000E-01   1.00800           0
       578 MEMB     4        POPC     C215     CTL2    -0.180000       12.0110           0
       579 MEMB     4        POPC     H15R     HAL2     0.900000E-01   1.00800           0
       580 MEMB     4        POPC     H15S     HAL2     0.900000E-01   1.00800           0
       581 MEMB     4        POPC     C216     CTL2    -0.180000       12.0110           0
       582 MEMB     4        POPC     H16R     HAL2     0.900000E-01   1.00800           0
       583 MEMB     4        POPC     H16S     HAL2     0.900000E-01   1.00800           0
       584 MEMB     4        POPC     C217     CTL2    -0.180000       12.0110           0
       585 MEMB     4        POPC     H17R     HAL2     0.900000E-01   1.00800           0
       586 MEMB     4        POPC     H17S     HAL2     0.900000E-01   1.00800           0
       587 MEMB     4        POPC     C218     CTL3    -0.270000       12.0110           0
       588 MEMB     4        POPC     H18R     HAL3     0.900000E-01   1.00800           0
       589 MEMB     4        POPC     H18S     HAL3     0.900000E-01   1.00800           0
       590 MEMB     4        POPC     H18T     HAL3     0.900000E-01   1.00800           0
       591 MEMB     4        POPC     C33      CTL2    -0.180000       12.0110           0
       592 MEMB     4        POPC     H3X      HAL2     0.900000E-01   1.00800           0
       593 MEMB     4        POPC     H3Y      HAL2     0.900000E-01   1.00800           0
       594 MEMB     4        POPC     C34      CTL2    -0.180000       12.0110           0
       595 MEMB     4        POPC     H4X      HAL2     0.900000E-01   1.00800           0
       596 MEMB     4        POPC     H4Y      HAL2     0.900000E-01   1.00800           0
       597 MEMB     4        POPC     C35      CTL2    -0.180000       12.0110           0
       598 MEMB     4        POPC     H5X      HAL2     0.900000E-01   1.00800           0
       599 MEMB     4        POPC     H5Y      HAL2     0.900000E-01   1.00800           0
       600 MEMB     4        POPC     C36      CTL2    -0.180000       12.0110           0
       601 MEMB     4        POPC     H6X      HAL2     0.900000E-01   1.00800           0
       602 MEMB     4        POPC     H6Y      HAL2     0.900000E-01   1.00800           0
       603 MEMB     4        POPC     C37      CTL2    -0.180000       12.0110           0
       604 MEMB     4        POPC     H7X      HAL2     0.900000E-01   1.00800           0
       605 MEMB     4        POPC     H7Y      HAL2     0.900000E-01   1.00800           0
       606 MEMB     4        POPC     C38      CTL2    -0.180000       12.0110           0
       607 MEMB     4        POPC     H8X      HAL2     0.900000E-01   1.00800           0
       608 MEMB     4        POPC     H8Y      HAL2     0.900000E-01   1.00800           0
       609 MEMB     4        POPC     C39      CTL2    -0.180000       12.0110           0
       610 MEMB     4        POPC     H9X      HAL2     0.900000E-01   1.00800           0
       611 MEMB     4        POPC     H9Y      HAL2     0.900000E-01   1.00800           0
       612 MEMB     4        POPC     C310     CTL2    -0.180000       12.0110           0
       613 MEMB     4        POPC     H10X     HAL2     0.900000E-01   1.00800           0
       614 MEMB     4        POPC     H10Y     HAL2     0.900000E-01   1.00800           0
       615 MEMB     4        POPC     C311     CTL2    -0.180000       12.0110           0
       616 MEMB     4        POPC     H11X     HAL2     0.900000E-01   1.00800           0
       617 MEMB     4        POPC     H11Y     HAL2     0.900000E-01   1.00800           0
       618 MEMB     4        POPC     C312     CTL2    -0.180000       12.0110           0
       619 MEMB     4        POPC     H12X     HAL2     0.900000E-01   1.00800           0
       620 MEMB     4        POPC     H12Y     HAL2     0.900000E-01   1.00800           0
       621 MEMB     4        POPC     C313     CTL2    -0.180000       12.0110           0
       622 MEMB     4        POPC     H13X     HAL2     0.900000E-01   1.00800           0
       623 MEMB     4        POPC     H13Y     HAL2     0.900000E-01   1.00800           0
       624 MEMB     4        POPC     C314     CTL2    -0.180000       12.0110           0
       625 MEMB     4        POPC     H14X     HAL2     0.900000E-01   1.00800           0
       626 MEMB     4        POPC     H14Y     HAL2     0.900000E-01   1.00800           0
       627 MEMB     4        POPC     C315     CTL2    -0.180000       12.0110           0
       628 MEMB     4        POPC     H15X     HAL2     0.900000E-01   1.00800           0
       629 MEMB     4        POPC     H15Y     HAL2     0.900000E-01   1.00800           0
       630 MEMB     4        POPC     C316     CTL3    -0.270000       12.0110           0
       631 MEMB     4        POPC     H16X     HAL3     0.900000E-01   1.00800           0
       632 MEMB     4        POPC     H16Y     HAL3     0.900000E-01   1.00800           0
       633 MEMB     4        POPC     H16Z     HAL3     0.900000E-01   1.00800           0
       634 MEMB     5        POPC     N        NTL     -0.600000       14.0070           0
       635 MEMB     5        POPC     C12      CTL2    -0.100000       12.0110           0
       636 MEMB     5        POPC     H12A     HL       0.250000       1.00800           0
       637 MEMB     5        POPC     H12B     HL       0.250000       1.00800           0
       638 MEMB     5        POPC     C13      CTL5    -0.350000       12.0110           0
       639 MEMB     5        POPC     H13A     HL       0.250000       1.00800           0
       640 MEMB     5        POPC     H13B     HL       0.250000       1.00800           0
       641 MEMB     5        POPC     H13C     HL       0.250000       1.00800           0
       642 MEMB     5        POPC     C14      CTL5    -0.350000       12.0110           0
       643 MEMB     5        POPC     H14A     HL       0.250000       1.00800           0
       644 MEMB     5        POPC     H14B     HL       0.250000       1.00800           0
       645 MEMB     5        POPC     H14C     HL       0.250000       1.00800           0
       646 MEMB     5        POPC     C15      CTL5    -0.350000       12.0110           0
       647 MEMB     5        POPC     H15A     HL       0.250000       1.00800           0
       648 MEMB     5        POPC     H15B     HL       0.250000       1.00800           0
       649 MEMB     5        POPC     H15C     HL       0.250000       1.00800           0
       650 MEMB     5        POPC     C11      CTL2    -0.800000E-01   12.0110           0
       651 MEMB     5        POPC     H11A     HAL2     0.900000E-01   1.00800           0
       652 MEMB     5        POPC     H11B     HAL2     0.900000E-01   1.00800           0
       653 MEMB     5        POPC     P        PL        1.50000       30.9740           0
       654 MEMB     5        POPC     O13      O2L     -0.780000       15.9994           0
       655 MEMB     5        POPC     O14      O2L     -0.780000       15.9994           0
       656 MEMB     5        POPC     O12      OSLP    -0.570000       15.9994           0
       657 MEMB     5        POPC     O11      OSLP    -0.570000       15.9994           0
       658 MEMB     5        POPC     C1       CTL2    -0.800000E-01   12.0110           0
       659 MEMB     5        POPC     HA       HAL2     0.900000E-01   1.00800           0
       660 MEMB     5        POPC     HB       HAL2     0.900000E-01   1.00800           0
       661 MEMB     5        POPC     C2       CTL1     0.170000       12.0110           0
       662 MEMB     5        POPC     HS       HAL1     0.900000E-01   1.00800           0
       663 MEMB     5        POPC     O21      OSL     -0.490000       15.9994           0
       664 MEMB     5        POPC     C21      CL       0.900000       12.0110           0
       665 MEMB     5        POPC     O22      OBL     -0.630000       15.9994           0
       666 MEMB     5        POPC     C22      CTL2    -0.220000       12.0110           0
       667 MEMB     5        POPC     H2R      HAL2     0.900000E-01   1.00800           0
       668 MEMB     5        POPC     H2S      HAL2     0.900000E-01   1.00800           0
       669 MEMB     5        POPC     C3       CTL2     0.800000E-01   12.0110           0
       670 MEMB     5        POPC     HX       HAL2     0.900000E-01   1.00800           0
       671 MEMB     5        POPC     HY       HAL2     0.900000E-01   1.00800           0
       672 MEMB     5        POPC     O31      OSL     -0.490000       15.9994           0
       673 MEMB     5        POPC     C31      CL       0.900000       12.0110           0
       674 MEMB     5        POPC     O32      OBL     -0.630000       15.9994           0
       675 MEMB     5        POPC     C32      CTL2    -0.220000       12.0110           0
       676 MEMB     5        POPC     H2X      HAL2     0.900000E-01   1.00800           0
       677 MEMB     5        POPC     H2Y      HAL2     0.900000E-01   1.00800           0
       678 MEMB     5        POPC     C23      CTL2    -0.180000       12.0110           0
       679 MEMB     5        POPC     H3R      HAL2     0.900000E-01   1.00800           0
       680 MEMB     5        POPC     H3S      HAL2     0.900000E-01   1.00800           0
       681 MEMB     5        POPC     C24      CTL2    -0.180000       12.0110           0
       682 MEMB     5        POPC     H4R      HAL2     0.900000E-01   1.00800           0
       683 MEMB     5        POPC     H4S      HAL2     0.900000E-01   1.00800           0
       684 MEMB     5        POPC     C25      CTL2    -0.180000       12.0110           0
       685 MEMB     5        POPC     H5R      HAL2     0.900000E-01   1.00800           0
       686 MEMB     5        POPC     H5S      HAL2     0.900000E-01   1.00800           0
       687 MEMB     5        POPC     C26      CTL2    -0.180000       12.0110           0
       688 MEMB     5        POPC     H6R      HAL2     0.900000E-01   1.00800           0
       689 MEMB     5        POPC     H6S      HAL2     0.900000E-01   1.00800           0
       690 MEMB     5        POPC     C27      CTL2    -0.180000       12.0110           0
       691 MEMB     5        POPC     H7R      HAL2     0.900000E-01   1.00800           0
       692 MEMB     5        POPC     H7S      HAL2     0.900000E-01   1.00800           0
       693 MEMB     5        POPC     C28      CTL2    -0.180000       12.0110           0
       694 MEMB     5        POPC     H8R      HAL2     0.900000E-01   1.00800           0
       695 MEMB     5        POPC     H8S      HAL2     0.900000E-01   1.00800           0
       696 MEMB     5        POPC     C29      CEL1    -0.150000       12.0110           0
       697 MEMB     5        POPC     H91      HEL1     0.150000       1.00800           0
       698 MEMB     5        POPC     C210     CEL1    -0.150000       12.0110           0
       699 MEMB     5        POPC     H101     HEL1     0.150000       1.00800           0
       700 MEMB     5        POPC     C211     CTL2    -0.180000       12.0110           0
       701 MEMB     5        POPC     H11R     HAL2     0.900000E-01   1.00800           0
       702 MEMB     5        POPC     H11S     HAL2     0.900000E-01   1.00800           0
       703 MEMB     5        POPC     C212     CTL2    -0.180000       12.0110           0
       704 MEMB     5        POPC     H12R     HAL2     0.900000E-01   1.00800           0
       705 MEMB     5        POPC     H12S     HAL2     0.900000E-01   1.00800           0
       706 MEMB     5        POPC     C213     CTL2    -0.180000       12.0110           0
       707 MEMB     5        POPC     H13R     HAL2     0.900000E-01   1.00800           0
       708 MEMB     5        POPC     H13S     HAL2     0.900000E-01   1.00800           0
       709 MEMB     5        POPC     C214     CTL2    -0.180000       12.0110           0
       710 MEMB     5        POPC     H14R     HAL2     0.900000E-01   1.00800           0
       711 MEMB     5        POPC     H14S     HAL2     0.900000E-01   1.00800           0
       712 MEMB     5        POPC     C215     CTL2    -0.180000       12.0110           0
       713 MEMB     5        POPC     H15R     HAL2     0.900000E-01   1.00800           0
       714 MEMB     5        POPC     H15S     HAL2     0.900000E-01   1.00800           0
       715 MEMB     5        POPC     C216     CTL2    -0.180000       12.0110           0
       716 MEMB     5        POPC     H16R     HAL2     0.900000E-01   1.00800           0
       717 MEMB     5        POPC     H16S     HAL2     0.900000E-01   1.00800           0
       718 MEMB     5        POPC     C217     CTL2    -0.180000       12.0110           0
       719 MEMB     5        POPC     H17R     HAL2     0.900000E-01   1.00800           0
       720 MEMB     5        POPC     H17S     HAL2     0.900000E-01   1.00800           0
       721 MEMB     5        POPC     C218     CTL3    -0.270000       12.0110           0
       722 MEMB     5        POPC     H18R     HAL3     0.900000E-01   1.00800           0
       723 MEMB     5        POPC     H18S     HAL3     0.900000E-01   1.00800           0
       724 MEMB     5        POPC     H18T     HAL3     0.900000E-01   1.00800           0
       725 MEMB     5        POPC     C33      CTL2    -0.180000       12.0110           0
       726 MEMB     5        POPC     H3X      HAL2     0.900000E-01   1.00800           0
       727 MEMB     5        POPC     H3Y      HAL2     0.900000E-01   1.00800           0
       728 MEMB     5        POPC     C34      CTL2    -0.180000       12.0110           0
       729 MEMB     5        POPC     H4X      HAL2     0.900000E-01   1.00800           0
       730 MEMB     5        POPC     H4Y      HAL2     0.900000E-01   1.00800           0
       731 MEMB     5        POPC     C35      CTL2    -0.180000       12.0110           0
       732 MEMB     5        POPC     H5X      HAL2     0.900000E-01   1.00800           0
       733 MEMB     5        POPC     H5Y      HAL2     0.900000E-01   1.00800           0
       734 MEMB     5        POPC     C36      CTL2    -0.180000       12.0110           0
       735 MEMB     5        POPC     H6X      HAL2     0.900000E-01   1.00800           0
       736 MEMB     5        POPC     H6Y      HAL2     0.900000E-01   1.00800           0
       737 MEMB     5        POPC     C37      CTL2    -0.180000       12.0110           0
       738 MEMB     5        POPC     H7X      HAL2     0.900000E-01   1.00800           0
       739 MEMB     5        POPC     H7Y      HAL2     0.900000E-01   1.00800           0
       740 MEMB     5        POPC     C38      CTL2    -0.180000       12.0110           0
       741 MEMB     5        POPC     H8X      HAL2     0.900000E-01   1.00800           0
       742 MEMB     5        POPC     H8Y      HAL2     0.900000E-01   1.00800           0
       743 MEMB     5        POPC     C39      CTL2    -0.180000       12.0110           0
       744 MEMB     5        POPC     H9X      HAL2     0.900000E-01   1.00800           0
       745 MEMB     5        POPC     H9Y      HAL2     0.900000E-01   1.00800           0
       746 MEMB     5        POPC     C310     CTL2    -0.180000       12.0110           0
       747 MEMB     5        POPC     H10X     HAL2     0.900000E-01   1.00800           0
       748 MEMB     5        POPC     H10Y     HAL2     0.900000E-01   1.00800           0
       749 MEMB     5        POPC     C311     CTL2    -0.180000       12.0110           0
       750 MEMB     5        POPC     H11X     HAL2     0.900000E-01   1.00800           0
       751 MEMB     5        POPC     H11Y     HAL2     0.900000E-01   1.00800           0
       752 MEMB     5        POPC     C312     CTL2    -0.180000       12.0110           0
       753 MEMB     5        POPC     H12X     HAL2     0.900000E-01   1.00800           0
       754 MEMB     5        POPC     H12Y     HAL2     0.900000E-01   1.00800           0
       755 MEMB     5        POPC     C313     CTL2    -0.180000       12.0110           0
       756 MEMB     5        POPC     H13X     HAL2     0.900000E-01   1.00800           0
       757 MEMB     5        POPC     H13Y     HAL2     0.900000E-01   1.00800           0
       758 MEMB     5        POPC     C314     CTL2    -0.180000       12.0110           0
       759 MEMB     5        POPC     H14X     HAL2     0.900000E-01   1.00800           0
       760 MEMB     5        POPC     H14Y     HAL2     0.900000E-01   1.00800           0
       761 MEMB     5        POPC     C315     CTL2    -0.180000       12.0110           0
       762 MEMB     5        POPC     H15X     HAL2     0.900000E-01   1.00800           0
       763 MEMB     5        POPC     H15Y     HAL2     0.900000E-01   1.00800           0
       764 MEMB     5        POPC     C316     CTL3    -0.270000       12.0110           0
       765 MEMB     5        POPC     H16X     HAL3     0.900000E-01   1.00800           0
       766 MEMB     5        POPC     H16Y     HAL3     0.900000E-01   1.00800           0
       767 MEMB     5        POPC     H16Z     HAL3     0.900000E-01   1.00800           0
       768 MEMB     6        POPC     N        NTL     -0.600000       14.0070           0
       769 MEMB     6        POPC     C12      CTL2    -0.100000       12.0110           0
       770 MEMB     6        POPC     H12A     HL       0.250000       1.00800           0
       771 MEMB     6        POPC     H12B     HL       0.250000       1.00800           0
       772 MEMB     6        POPC     C13      CTL5    -0.350000       12.0110           0
       773 MEMB     6        POPC     H13A     HL       0.250000       1.00800           0
       774 MEMB     6        POPC     H13B     HL       0.250000       1.00800           0
       775 MEMB     6        POPC     H13C     HL       0.250000       1.00800           0
       776 MEMB     6        POPC     C14      CTL5    -0.350000       12.0110           0
       777 MEMB     6        POPC     H14A     HL       0.250000       1.00800           0
       778 MEMB     6        POPC     H14B     HL       0.250000       1.00800           0
       779 MEMB     6        POPC     H14C     HL       0.250000       1.00800           0
       780 MEMB     6        POPC     C15      CTL5    -0.350000       12.0110           0
       781 MEMB     6        POPC     H15A     HL       0.250000       1.00800           0
       782 MEMB     6        POPC     H15B     HL       0.250000       1.00800           0
       783 MEMB     6        POPC     H15C     HL       0.250000       1.00800           0
       784 MEMB     6        POPC     C11      CTL2    -0.800000E-01   12.0110           0
       785 MEMB     6        POPC     H11A     HAL2     0.900000E-01   1.00800           0
       786 MEMB     6        POPC     H11B     HAL2     0.900000E-01   1.00800           0
       787 MEMB     6        POPC     P        PL        1.50000       30.9740           0
       788 MEMB     6        POPC     O13      O2L     -0.780000       15.9994           0
       789 MEMB     6        POPC     O14      O2L     -0.780000       15.9994           0
       790 MEMB     6        POPC     O12      OSLP    -0.570000       15.9994           0
       791 MEMB     6        POPC     O11      OSLP    -0.570000       15.9994           0
       792 MEMB     6        POPC     C1       CTL2    -0.800000E-01   12.0110           0
       793 MEMB     6        POPC     HA       HAL2     0.900000E-01   1.00800           0
       794 MEMB     6        POPC     HB       HAL2     0.900000E-01   1.00800           0
       795 MEMB     6        POPC     C2       CTL1     0.170000       12.0110           0
       796 MEMB     6        POPC     HS       HAL1     0.900000E-01   1.00800           0
       797 MEMB     6        POPC     O21      OSL     -0.490000       15.9994           0
       798 MEMB     6        POPC     C21      CL       0.900000       12.0110           0
       799 MEMB     6        POPC     O22      OBL     -0.630000       15.9994           0
       800 MEMB     6        POPC     C22      CTL2    -0.220000       12.0110           0
       801 MEMB     6        POPC     H2R      HAL2     0.900000E-01   1.00800           0
       802 MEMB     6        POPC     H2S      HAL2     0.900000E-01   1.00800           0
       803 MEMB     6        POPC     C3       CTL2     0.800000E-01   12.0110           0
       804 MEMB     6        POPC     HX       HAL2     0.900000E-01   1.00800           0
       805 MEMB     6        POPC     HY       HAL2     0.900000E-01   1.00800           0
       806 MEMB     6        POPC     O31      OSL     -0.490000       15.9994           0
       807 MEMB     6        POPC     C31      CL       0.900000       12.0110           0
       808 MEMB     6        POPC     O32      OBL     -0.630000       15.9994           0
       809 MEMB     6        POPC     C32      CTL2    -0.220000       12.0110           0
       810 MEMB     6        POPC     H2X      HAL2     0.900000E-01   1.00800           0
       811 MEMB     6        POPC     H2Y      HAL2     0.900000E-01   1.00800           0
       812 MEMB     6        POPC     C23      CTL2    -0.180000       12.0110           0
       813 MEMB     6        POPC     H3R      HAL2     0.900000E-01   1.00800           0
       814 MEMB     6        POPC     H3S      HAL2     0.900000E-01   1.00800           0
       815 MEMB     6        POPC     C24      CTL2    -0.180000       12.0110           0
       816 MEMB     6        POPC     H4R      HAL2     0.900000E-01   1.00800           0
       817 MEMB     6        POPC     H4S      HAL2     0.900000E-01   1.00800           0
       818 MEMB     6        POPC     C25      CTL2    -0.180000       12.0110           0
       819 MEMB     6        POPC     H5R      HAL2     0.900000E-01   1.00800           0
       820 MEMB     6        POPC     H5S      HAL2     0.900000E-01   1.00800           0
       821 MEMB     6        POPC     C26      CTL2    -0.180000       12.0110           0
       822 MEMB     6        POPC     H6R      HAL2     0.900000E-01   1.00800           0
       823 MEMB     6        POPC     H6S      HAL2     0.900000E-01   1.00800           0
       824 MEMB     6        POPC     C27      CTL2    -0.180000       12.0110           0
       825 MEMB     6        POPC     H7R      HAL2     0.900000E-01   1.00800           0
       826 MEMB     6        POPC     H7S      HAL2     0.900000E-01   1.00800           0
       827 MEMB     6        POPC     C28      CTL2    -0.180000       12.0110           0
       828 MEMB     6        POPC     H8R      HAL2     0.900000E-01   1.00800           0
       829 MEMB     6        POPC     H8S      HAL2     0.900000E-01   1.00800           0
       830 MEMB     6        POPC     C29      CEL1    -0.150000       12.0110           0
       831 MEMB     6        POPC     H91      HEL1     0.150000       1.00800           0
       832 MEMB     6        POPC     C210     CEL1    -0.150000       12.0110           0
       833 MEMB     6        POPC     H101     HEL1     0.150000       1.00800           0
       834 MEMB     6        POPC     C211     CTL2    -0.180000       12.0110           0
       835 MEMB     6        POPC     H11R     HAL2     0.900000E-01   1.00800           0
       836 MEMB     6        POPC     H11S     HAL2     0.900000E-01   1.00800           0
       837 MEMB     6        POPC     C212     CTL2    -0.180000       12.0110           0
       838 MEMB     6        POPC     H12R     HAL2     0.900000E-01   1.00800           0
       839 MEMB     6        POPC     H12S     HAL2     0.900000E-01   1.00800           0
       840 MEMB     6        POPC     C213     CTL2    -0.180000       12.0110           0
       841 MEMB     6        POPC     H13R     HAL2     0.900000E-01   1.00800           0
       842 MEMB     6        POPC     H13S     HAL2     0.900000E-01   1.00800           0
       843 MEMB     6        POPC     C214     CTL2    -0.180000       12.0110           0
       844 MEMB     6        POPC     H14R     HAL2     0.900000E-01   1.00800           0
       845 MEMB     6        POPC     H14S     HAL2     0.900000E-01   1.00800           0
       846 MEMB     6        POPC     C215     CTL2    -0.180000       12.0110           0
       847 MEMB     6        POPC     H15R     HAL2     0.900000E-01   1.00800           0
       848 MEMB     6        POPC     H15S     HAL2     0.900000E-01   1.00800           0
       849 MEMB     6        POPC     C216     CTL2    -0.180000       12.0110           0
       850 MEMB     6        POPC     H16R     HAL2     0.900000E-01   1.00800           0
       851 MEMB     6        POPC     H16S     HAL2     0.900000E-01   1.00800           0
       852 MEMB     6        POPC     C217     CTL2    -0.180000       12.0110           0
       853 MEMB     6        POPC     H17R     HAL2     0.900000E-01   1.00800           0
       854 MEMB     6        POPC     H17S     HAL2     0.900000E-01   1.00800           0
       855 MEMB     6        POPC     C218     CTL3    -0.270000       12.0110           0
       856 MEMB     6        POPC     H18R     HAL3     0.900000E-01   1.00800           0
       857 MEMB     6        POPC     H18S     HAL3     0.900000E-01   1.00800           0
       858 MEMB     6        POPC     H18T     HAL3     0.900000E-01   1.00800           0
       859 MEMB     6        POPC     C33      CTL2    -0.180000       12.0110           0
       860 MEMB     6        POPC     H3X      HAL2     0.900000E-01   1.00800           0
       861 MEMB     6        POPC     H3Y      HAL2     0.900000E-01   1.00800           0
       862 MEMB     6        POPC     C34      CTL2    -0.180000       12.0110           0
       863 MEMB     6        POPC     H4X      HAL2     0.900000E-01   1.00800           0
       864 MEMB     6        POPC     H4Y      HAL2     0.900000E-01   1.00800           0
       865 MEMB     6        POPC     C35      CTL2    -0.180000       12.0110           0
       866 MEMB     6        POPC     H5X      HAL2     0.900000E-01   1.00800           0
       867 MEMB     6        POPC     H5Y      HAL2     0.900000E-01   1.00800           0
       868 MEMB     6        POPC     C36      CTL2    -0.180000       12.0110           0
       869 MEMB     6        POPC     H6X      HAL2     0.900000E-01   1.00800           0
       870 MEMB     6        POPC     H6Y      HAL2     0.900000E-01   1.00800           0
       871 MEMB     6        POPC     C37      CTL2    -0.180000       12.0110           0
       872 MEMB     6        POPC     H7X      HAL2     0.900000E-01   1.00800           0
       873 MEMB     6        POPC     H7Y      HAL2     0.900000E-01   1.00800           0
       874 MEMB     6        POPC     C38      CTL2    -0.180000       12.0110           0
       875 MEMB     6        POPC     H8X      HAL2     0.900000E-01   1.00800           0
       876 MEMB     6        POPC     H8Y      HAL2     0.900000E-01   1.00800           0
       877 MEMB     6        POPC     C39      CTL2    -0.180000       12.0110           0
       878 MEMB     6        POPC     H9X      HAL2     0.900000E-01   1.00800           0
       879 MEMB     6        POPC     H9Y      HAL2     0.900000E-01   1.00800           0
       880 MEMB     6        POPC     C310     CTL2    -0.180000       12.0110           0
       881 MEMB     6        POPC     H10X     HAL2     0.900000E-01   1.00800           0
       882 MEMB     6        POPC     H10Y     HAL2     0.900000E-01   1.00800           0
       883 MEMB     6        POPC     C311     CTL2    -0.180000       12.0110           0
       884 MEMB     6        POPC     H11X     HAL2     0.900000E-01   1.00800           0
       885 MEMB     6        POPC     H11Y     HAL2     0.900000E-01   1.00800           0
       886 MEMB     6        POPC     C312     CTL2    -0.180000       12.0110           0
       887 MEMB     6        POPC     H12X     HAL2     0.900000E-01   1.00800           0
       888 MEMB     6        POPC     H12Y     HAL2     0.900000E-01   1.00800           0
       889 MEMB     6        POPC     C313     CTL2    -0.180000       12.0110           0
       890 MEMB     6        POPC     H13X     HAL2     0.900000E-01   1.00800           0
       891 MEMB     6        POPC     H13Y     HAL2     0.900000E-01   1.00800           0
       892 MEMB     6        POPC     C314     CTL2    -0.180000       12.0110           0
       893 MEMB     6        POPC     H14X     HAL2     0.900000E-01   1.00800           0
       894 MEMB     6        POPC     H14Y     HAL2     0.900000E-01   1.00800           0
       895 MEMB     6        POPC     C315     CTL2    -0.180000       12.0110           0
       896 MEMB     6        POPC     H15X     HAL2     0.900000E-01   1.00800           0
       897 MEMB     6        POPC     H15Y     HAL2     0.900000E-01   1.00800           0
       898 MEMB     6        POPC     C316     CTL3    -0.270000       12.0110           0
       899 MEMB     6        POPC     H16X     HAL3     0.900000E-01   1.00800           0
       900 MEMB     6        POPC     H16Y     HAL3     0.900000E-01   1.00800           0
       901 MEMB     6        POPC     H16Z     HAL3     0.900000E-01   1.00800           0
       902 MEMB     7        POPS     N        NH3L    -0.300000       14.0070           0
       903 MEMB     7        POPS     HN1      HCL      0.330000       1.00800           0
       904 MEMB     7        POPS     HN2      HCL      0.330000       1.00800           0
       905 MEMB     7        POPS     HN3      HCL      0.330000       1.00800           0
       906 MEMB     7        POPS     C12      CTL1     0.210000       12.0110           0
       907 MEMB     7        POPS     H12A     HBL      0.100000       1.00800           0
       908 MEMB     7        POPS     C13      CCL      0.340000       12.0110           0
       909 MEMB     7        POPS     O13A     OCL     -0.670000       15.9994           0
       910 MEMB     7        POPS     O13B     OCL     -0.670000       15.9994           0
       911 MEMB     7        POPS     C11      CTL2    -0.800000E-01   12.0110           0
       912 MEMB     7        POPS     H11A     HAL2     0.900000E-01   1.00800           0
       913 MEMB     7        POPS     H11B     HAL2     0.900000E-01   1.00800           0
       914 MEMB     7        POPS     P        PL        1.50000       30.9740           0
       915 MEMB     7        POPS     O13      O2L     -0.780000       15.9994           0
       916 MEMB     7        POPS     O14      O2L     -0.780000       15.9994           0
       917 MEMB     7        POPS     O12      OSLP    -0.570000       15.9994           0
       918 MEMB     7        POPS     O11      OSLP    -0.570000       15.9994           0
       919 MEMB     7        POPS     C1       CTL2    -0.800000E-01   12.0110           0
       920 MEMB     7        POPS     HA       HAL2     0.900000E-01   1.00800           0
       921 MEMB     7        POPS     HB       HAL2     0.900000E-01   1.00800           0
       922 MEMB     7        POPS     C2       CTL1     0.170000       12.0110           0
       923 MEMB     7        POPS     HS       HAL1     0.900000E-01   1.00800           0
       924 MEMB     7        POPS     O21      OSL     -0.490000       15.9994           0
       925 MEMB     7        POPS     C21      CL       0.900000       12.0110           0
       926 MEMB     7        POPS     O22      OBL     -0.630000       15.9994           0
       927 MEMB     7        POPS     C22      CTL2    -0.220000       12.0110           0
       928 MEMB     7        POPS     H2R      HAL2     0.900000E-01   1.00800           0
       929 MEMB     7        POPS     H2S      HAL2     0.900000E-01   1.00800           0
       930 MEMB     7        POPS     C3       CTL2     0.800000E-01   12.0110           0
       931 MEMB     7        POPS     HX       HAL2     0.900000E-01   1.00800           0
       932 MEMB     7        POPS     HY       HAL2     0.900000E-01   1.00800           0
       933 MEMB     7        POPS     O31      OSL     -0.490000       15.9994           0
       934 MEMB     7        POPS     C31      CL       0.900000       12.0110           0
       935 MEMB     7        POPS     O32      OBL     -0.630000       15.9994           0
       936 MEMB     7        POPS     C32      CTL2    -0.220000       12.0110           0
       937 MEMB     7        POPS     H2X      HAL2     0.900000E-01   1.00800           0
       938 MEMB     7        POPS     H2Y      HAL2     0.900000E-01   1.00800           0
       939 MEMB     7        POPS     C23      CTL2    -0.180000       12.0110           0
       940 MEMB     7        POPS     H3R      HAL2     0.900000E-01   1.00800           0
       941 MEMB     7        POPS     H3S      HAL2     0.900000E-01   1.00800           0
       942 MEMB     7        POPS     C24      CTL2    -0.180000       12.0110           0
       943 MEMB     7        POPS     H4R      HAL2     0.900000E-01   1.00800           0
       944 MEMB     7        POPS     H4S      HAL2     0.900000E-01   1.00800           0
       945 MEMB     7        POPS     C25      CTL2    -0.180000       12.0110           0
       946 MEMB     7        POPS     H5R      HAL2     0.900000E-01   1.00800           0
       947 MEMB     7        POPS     H5S      HAL2     0.900000E-01   1.00800           0
       948 MEMB     7        POPS     C26      CTL2    -0.180000       12.0110           0
       949 MEMB     7        POPS     H6R      HAL2     0.900000E-01   1.00800           0
       950 MEMB     7        POPS     H6S      HAL2     0.900000E-01   1.00800           0
       951 MEMB     7        POPS     C27      CTL2    -0.180000       12.0110           0
       952 MEMB     7        POPS     H7R      HAL2     0.900000E-01   1.00800           0
       953 MEMB     7        POPS     H7S      HAL2     0.900000E-01   1.00800           0
       954 MEMB     7        POPS     C28      CTL2    -0.180000       12.0110           0
       955 MEMB     7        POPS     H8R      HAL2     0.900000E-01   1.00800           0
       956 MEMB     7        POPS     H8S      HAL2     0.900000E-01   1.00800           0
       957 MEMB     7        POPS     C29      CEL1    -0.150000       12.0110           0
       958 MEMB     7        POPS     H91      HEL1     0.150000       1.00800           0
       959 MEMB     7        POPS     C210     CEL1    -0.150000       12.0110           0
       960 MEMB     7        POPS     H101     HEL1     0.150000       1.00800           0
       961 MEMB     7        POPS     C211     CTL2    -0.180000       12.0110           0
       962 MEMB     7        POPS     H11R     HAL2     0.900000E-01   1.00800           0
       963 MEMB     7        POPS     H11S     HAL2     0.900000E-01   1.00800           0
       964 MEMB     7        POPS     C212     CTL2    -0.180000       12.0110           0
       965 MEMB     7        POPS     H12R     HAL2     0.900000E-01   1.00800           0
       966 MEMB     7        POPS     H12S     HAL2     0.900000E-01   1.00800           0
       967 MEMB     7        POPS     C213     CTL2    -0.180000       12.0110           0
       968 MEMB     7        POPS     H13R     HAL2     0.900000E-01   1.00800           0
       969 MEMB     7        POPS     H13S     HAL2     0.900000E-01   1.00800           0
       970 MEMB     7        POPS     C214     CTL2    -0.180000       12.0110           0
       971 MEMB     7        POPS     H14R     HAL2     0.900000E-01   1.00800           0
       972 MEMB     7        POPS     H14S     HAL2     0.900000E-01   1.00800           0
       973 MEMB     7        POPS     C215     CTL2    -0.180000       12.0110           0
       974 MEMB     7        POPS     H15R     HAL2     0.900000E-01   1.00800           0
       975 MEMB     7        POPS     H15S     HAL2     0.900000E-01   1.00800           0
       976 MEMB     7        POPS     C216     CTL2    -0.180000       12.0110           0
       977 MEMB     7        POPS     H16R     HAL2     0.900000E-01   1.00800           0
       978 MEMB     7        POPS     H16S     HAL2     0.900000E-01   1.00800           0
       979 MEMB     7        POPS     C217     CTL2    -0.180000       12.0110           0
       980 MEMB     7        POPS     H17R     HAL2     0.900000E-01   1.00800           0
       981 MEMB     7        POPS     H17S     HAL2     0.900000E-01   1.00800           0
       982 MEMB     7        POPS     C218     CTL3    -0.270000       12.0110           0
       983 MEMB     7        POPS     H18R     HAL3     0.900000E-01   1.00800           0
       984 MEMB     7        POPS     H18S     HAL3     0.900000E-01   1.00800           0
       985 MEMB     7        POPS     H18T     HAL3     0.900000E-01   1.00800           0
       986 MEMB     7        POPS     C33      CTL2    -0.180000       12.0110           0
       987 MEMB     7        POPS     H3X      HAL2     0.900000E-01   1.00800           0
       988 MEMB     7        POPS     H3Y      HAL2     0.900000E-01   1.00800           0
       989 MEMB     7        POPS     C34      CTL2    -0.180000       12.0110           0
       990 MEMB     7        POPS     H4X      HAL2     0.900000E-01   1.00800           0
       991 MEMB     7        POPS     H4Y      HAL2     0.900000E-01   1.00800           0
       992 MEMB     7        POPS     C35      CTL2    -0.180000       12.0110           0
       993 MEMB     7        POPS     H5X      HAL2     0.900000E-01   1.00800           0
       994 MEMB     7        POPS     H5Y      HAL2     0.900000E-01   1.00800           0
       995 MEMB     7        POPS     C36      CTL2    -0.180000       12.0110           0
       996 MEMB     7        POPS     H6X      HAL2     0.900000E-01   1.00800           0
       997 MEMB     7        POPS     H6Y      HAL2     0.900000E-01   1.00800           0
       998 MEMB     7        POPS     C37      CTL2    -0.180000       12.0110           0
       999 MEMB     7        POPS     H7X      HAL2     0.900000E-01   1.00800           0
      1000 MEMB     7        POPS     H7Y      HAL2     0.900000E-01   1.00800           0
      1001 MEMB     7        POPS     C38      CTL2    -0.180000       12.0110           0
      1002 MEMB     7        POPS     H8X      HAL2     0.900000E-01   1.00800           0
      1003 MEMB     7        POPS     H8Y      HAL2     0.900000E-01   1.00800           0
      1004 MEMB     7        POPS     C39      CTL2    -0.180000       12.0110           0
      1005 MEMB     7        POPS     H9X      HAL2     0.900000E-01   1.00800           0
      1006 MEMB     7        POPS     H9Y      HAL2     0.900000E-01   1.00800           0
      1007 MEMB     7        POPS     C310     CTL2    -0.180000       12.0110           0
      1008 MEMB     7        POPS     H10X     HAL2     0.900000E-01   1.00800           0
      1009 MEMB     7        POPS     H10Y     HAL2     0.900000E-01   1.00800           0
      1010 MEMB     7        POPS     C311     CTL2    -0.180000       12.0110           0
      1011 MEMB     7        POPS     H11X     HAL2     0.900000E-01   1.00800           0
      1012 MEMB     7        POPS     H11Y     HAL2     0.900000E-01   1.00800           0
      1013 MEMB     7        POPS     C312     CTL2    -0.180000       12.0110           0
      1014 MEMB     7        POPS     H12X     HAL2     0.900000E-01   1.00800           0
      1015 MEMB     7        POPS     H12Y     HAL2     0.900000E-01   1.00800           0
      1016 MEMB     7        POPS     C313     CTL2    -0.180000       12.0110           0
      1017 MEMB     7        POPS     H13X     HAL2     0.900000E-01   1.00800           0
      1018 MEMB     7        POPS     H13Y     HAL2     0.900000E-01   1.00800           0
      1019 MEMB     7        POPS     C314     CTL2    -0.180000       12.0110           0
      1020 MEMB     7        POPS     H14X     HAL2     0.900000E-01   1.00800           0
      1021 MEMB     7        POPS     H14Y     HAL2     0.900000E-01   1.00800           0
      1022 MEMB     7        POPS     C315     CTL2    -0.180000       12.0110           0
      1023 MEMB     7        POPS     H15X     HAL2     0.900000E-01   1.00800           0
      1024 MEMB     7        POPS     H15Y     HAL2     0.900000E-01   1.00800           0
      1025 MEMB     7        POPS     C316     CTL3    -0.270000       12.0110           0
      1026 MEMB     7        POPS     H16X     HAL3     0.900000E-01   1.00800           0
      1027 MEMB     7        POPS     H16Y     HAL3     0.900000E-01   1.00800           0
      1028 MEMB     7        POPS     H16Z     HAL3     0.900000E-01   1.00800           0
      1029 MEMB     8        POPC     N        NTL     -0.600000       14.0070           0
      1030 MEMB     8        POPC     C12      CTL2    -0.100000       12.0110           0
      1031 MEMB     8        POPC     H12A     HL       0.250000       1.00800           0
      1032 MEMB     8        POPC     H12B     HL       0.250000       1.00800           0
      1033 MEMB     8        POPC     C13      CTL5    -0.350000       12.0110           0
      1034 MEMB     8        POPC     H13A     HL       0.250000       1.00800           0
      1035 MEMB     8        POPC     H13B     HL       0.250000       1.00800           0
      1036 MEMB     8        POPC     H13C     HL       0.250000       1.00800           0
      1037 MEMB     8        POPC     C14      CTL5    -0.350000       12.0110           0
      1038 MEMB     8        POPC     H14A     HL       0.250000       1.00800           0
      1039 MEMB     8        POPC     H14B     HL       0.250000       1.00800           0
      1040 MEMB     8        POPC     H14C     HL       0.250000       1.00800           0
      1041 MEMB     8        POPC     C15      CTL5    -0.350000       12.0110           0
      1042 MEMB     8        POPC     H15A     HL       0.250000       1.00800           0
      1043 MEMB     8        POPC     H15B     HL       0.250000       1.00800           0
      1044 MEMB     8        POPC     H15C     HL       0.250000       1.00800           0
      1045 MEMB     8        POPC     C11      CTL2    -0.800000E-01   12.0110           0
      1046 MEMB     8        POPC     H11A     HAL2     0.900000E-01   1.00800           0
      1047 MEMB     8        POPC     H11B     HAL2     0.900000E-01   1.00800           0
      1048 MEMB     8        POPC     P        PL        1.50000       30.9740           0
      1049 MEMB     8        POPC     O13      O2L     -0.780000       15.9994           0
      1050 MEMB     8        POPC     O14      O2L     -0.780000       15.9994           0
      1051 MEMB     8        POPC     O12      OSLP    -0.570000       15.9994           0
      1052 MEMB     8        POPC     O11      OSLP    -0.570000       15.9994           0
      1053 MEMB     8        POPC     C1       CTL2    -0.800000E-01   12.0110           0
      1054 MEMB     8        POPC     HA       HAL2     0.900000E-01   1.00800           0
      1055 MEMB     8        POPC     HB       HAL2     0.900000E-01   1.00800           0
      1056 MEMB     8        POPC     C2       CTL1     0.170000       12.0110           0
      1057 MEMB     8        POPC     HS       HAL1     0.900000E-01   1.00800           0
      1058 MEMB     8        POPC     O21      OSL     -0.490000       15.9994           0
      1059 MEMB     8        POPC     C21      CL       0.900000       12.0110           0
      1060 MEMB     8        POPC     O22      OBL     -0.630000       15.9994           0
      1061 MEMB     8        POPC     C22      CTL2    -0.220000       12.0110           0
      1062 MEMB     8        POPC     H2R      HAL2     0.900000E-01   1.00800           0
      1063 MEMB     8        POPC     H2S      HAL2     0.900000E-01   1.00800           0
      1064 MEMB     8        POPC     C3       CTL2     0.800000E-01   12.0110           0
      1065 MEMB     8        POPC     HX       HAL2     0.900000E-01   1.00800           0
      1066 MEMB     8        POPC     HY       HAL2     0.900000E-01   1.00800           0
      1067 MEMB     8        POPC     O31      OSL     -0.490000       15.9994           0
      1068 MEMB     8        POPC     C31      CL       0.900000       12.0110           0
      1069 MEMB     8        POPC     O32      OBL     -0.630000       15.9994           0
      1070 MEMB     8        POPC     C32      CTL2    -0.220000       12.0110           0
      1071 MEMB     8        POPC     H2X      HAL2     0.900000E-01   1.00800           0
      1072 MEMB     8        POPC     H2Y      HAL2     0.900000E-01   1.00800           0
      1073 MEMB     8        POPC     C23      CTL2    -0.180000       12.0110           0
      1074 MEMB     8        POPC     H3R      HAL2     0.900000E-01   1.00800           0
      1075 MEMB     8        POPC     H3S      HAL2     0.900000E-01   1.00800           0
      1076 MEMB     8        POPC     C24      CTL2    -0.180000       12.0110           0
      1077 MEMB     8        POPC     H4R      HAL2     0.900000E-01   1.00800           0
      1078 MEMB     8        POPC     H4S      HAL2     0.900000E-01   1.00800           0
      1079 MEMB     8        POPC     C25      CTL2    -0.180000       12.0110           0
      1080 MEMB     8        POPC     H5R      HAL2     0.900000E-01   1.00800           0
      1081 MEMB     8        POPC     H5S      HAL2     0.900000E-01   1.00800           0
      1082 MEMB     8        POPC     C26      CTL2    -0.180000       12.0110           0
      1083 MEMB     8        POPC     H6R      HAL2     0.900000E-01   1.00800           0
      1084 MEMB     8        POPC     H6S      HAL2     0.900000E-01   1.00800           0
      1085 MEMB     8        POPC     C27      CTL2    -0.180000       12.0110           0
      1086 MEMB     8        POPC     H7R      HAL2     0.900000E-01   1.00800           0
      1087 MEMB     8        POPC     H7S      HAL2     0.900000E-01   1.00800           0
      1088 MEMB     8        POPC     C28      CTL2    -0.180000       12.0110           0
      1089 MEMB     8        POPC     H8R      HAL2     0.900000E-01   1.00800           0
      1090 MEMB     8        POPC     H8S      HAL2     0.900000E-01   1.00800           0
      1091 MEMB     8        POPC     C29      CEL1    -0.150000       12.0110           0
      1092 MEMB     8        POPC     H91      HEL1     0.150000       1.00800           0
      1093 MEMB     8        POPC     C210     CEL1    -0.150000       12.0110           0
      1094 MEMB     8        POPC     H101     HEL1     0.150000       1.00800           0
      1095 MEMB     8        POPC     C211     CTL2    -0.180000       12.0110           0
      1096 MEMB     8        POPC     H11R     HAL2     0.900000E-01   1.00800           0
      1097 MEMB     8        POPC     H11S     HAL2     0.900000E-01   1.00800           0
      1098 MEMB     8        POPC     C212     CTL2    -0.180000       12.0110           0
      1099 MEMB     8        POPC     H12R     HAL2     0.900000E-01   1.00800           0
      1100 MEMB     8        POPC     H12S     HAL2     0.900000E-01   1.00800           0
      1101 MEMB     8        POPC     C213     CTL2    -0.180000       12.0110           0
      1102 MEMB     8        POPC     H13R     HAL2     0.900000E-01   1.00800           0
      1103 MEMB     8        POPC     H13S     HAL2     0.900000E-01   1.00800           0
      1104 MEMB     8        POPC     C214     CTL2    -0.180000       12.0110           0
      1105 MEMB     8        POPC     H14R     HAL2     0.900000E-01   1.00800           0
      1106 MEMB     8        POPC     H14S     HAL2     0.900000E-01   1.00800           0
      1107 MEMB     8        POPC     C215     CTL2    -0.180000       12.0110           0
      1108 MEMB     8        POPC     H15R     HAL2     0.900000E-01   1.00800           0
      1109 MEMB     8        POPC     H15S     HAL2     0.900000E-01   1.00800           0
      1110 MEMB     8        POPC     C216     CTL2    -0.180000       12.0110           0
      1111 MEMB     8        POPC     H16R     HAL2     0.900000E-01   1.00800           0
      1112 MEMB     8        POPC     H16S     HAL2     0.900000E-01   1.00800           0
      1113 MEMB     8        POPC     C217     CTL2    -0.180000       12.0110           0
      1114 MEMB     8        POPC     H17R     HAL2     0.900000E-01   1.00800           0
      1115 MEMB     8        POPC     H17S     HAL2     0.900000E-01   1.00800           0
      1116 MEMB     8        POPC     C218     CTL3    -0.270000       12.0110           0
      1117 MEMB     8        POPC     H18R     HAL3     0.900000E-01   1.00800           0
      1118 MEMB     8        POPC     H18S     HAL3     0.900000E-01   1.00800           0
      1119 MEMB     8        POPC     H18T     HAL3     0.900000E-01   1.00800           0
      1120 MEMB     8        POPC     C33      CTL2    -0.180000       12.0110           0
      1121 MEMB     8        POPC     H3X      HAL2     0.900000E-01   1.00800           0
      1122 MEMB     8        POPC     H3Y      HAL2     0.900000E-01   1.00800           0
      1123 MEMB     8        POPC     C34      CTL2    -0.180000       12.0110           0
      1124 MEMB     8        POPC     H4X      HAL2     0.900000E-01   1.00800           0
      1125 MEMB     8        POPC     H4Y      HAL2     0.900000E-01   1.00800           0
      1126 MEMB     8        POPC     C35      CTL2    -0.180000       12.0110           0
      1127 MEMB     8        POPC     H5X      HAL2     0.900000E-01   1.00800           0
      1128 MEMB     8        POPC     H5Y      HAL2     0.900000E-01   1.00800           0
      1129 MEMB     8        POPC     C36      CTL2    -0.180000       12.0110           0
      1130 MEMB     8        POPC     H6X      HAL2     0.900000E-01   1.00800           0
      1131 MEMB     8        POPC     H6Y      HAL2     0.900000E-01   1.00800           0
      1132 MEMB     8        POPC     C37      CTL2    -0.180000       12.0110           0
      1133 MEMB     8        POPC     H7X      HAL2     0.900000E-01   1.00800           0
      1134 MEMB     8        POPC     H7Y      HAL2     0.900000E-01   1.00800           0
      1135 MEMB     8        POPC     C38      CTL2    -0.180000       12.0110           0
      1136 MEMB     8        POPC     H8X      HAL2     0.900000E-01   1.00800           0
      1137 MEMB     8        POPC     H8Y      HAL2     0.900000E-01   1.00800           0
      1138 MEMB     8        POPC     C39      CTL2    -0.180000       12.0110           0
      1139 MEMB     8        POPC     H9X      HAL2     0.900000E-01   1.00800           0
      1140 MEMB     8        POPC     H9Y      HAL2     0.900000E-01   1.00800           0
      1141 MEMB     8        POPC     C310     CTL2    -0.180000       12.0110           0
      1142 MEMB     8        POPC     H10X     HAL2     0.900000E-01   1.00800           0
      1143 MEMB     8        POPC     H10Y     HAL2     0.900000E-01   1.00800           0
      1144 MEMB     8        POPC     C311     CTL2    -0.180000       12.0110           0
      1145 MEMB     8        POPC     H11X     HAL2     0.900000E-01   1.00800           0
      1146 MEMB     8        POPC     H11Y     HAL2     0.900000E-01   1.00800           0
      1147 MEMB     8        POPC     C312     CTL2    -0.180000       12.0110           0
      1148 MEMB     8        POPC     H12X     HAL2     0.900000E-01   1.00800           0
      1149 MEMB     8        POPC     H12Y     HAL2     0.900000E-01   1.00800           0
      1150 MEMB     8        POPC     C313     CTL2    -0.180000       12.0110           0
      1151 MEMB     8        POPC     H13X     HAL2     0.900000E-01   1.00800           0
      1152 MEMB     8        POPC     H13Y     HAL2     0.900000E-01   1.00800           0
      1153 MEMB     8        POPC     C314     CTL2    -0.180000       12.0110           0
      1154 MEMB     8        POPC     H14X     HAL2     0.900000E-01   1.00800           0
      1155 MEMB     8        POPC     H14Y     HAL2     0.900000E-01   1.00800           0
      1156 MEMB     8        POPC     C315     CTL2    -0.180000       12.0110           0
      1157 MEMB     8        POPC     H15X     HAL2     0.900000E-01   1.00800           0
      1158 MEMB     8        POPC     H15Y     HAL2     0.900000E-01   1.00800           0
      1159 MEMB     8        POPC     C316     CTL3    -0.270000       12.0110           0
      1160 MEMB     8        POPC     H16X     HAL3     0.900000E-01   1.00800           0
      1161 MEMB     8        POPC     H16Y     HAL3     0.900000E-01   1.00800           0
      1162 MEMB     8        POPC     H16Z     HAL3     0.900000E-01   1.00800           0
      1163 MEMB     9        POPC     N        NTL     -0.600000       14.0070           0
      1164 MEMB     9        POPC     C12      CTL2    -0.100000       12.0110           0
      1165 MEMB     9        POPC     H12A     HL       0.250000       1.00800           0
      1166 MEMB     9        POPC     H12B     HL       0.250000       1.00800           0
      1167 MEMB     9        POPC     C13      CTL5    -0.350000       12.0110           0
      1168 MEMB     9        POPC     H13A     HL       0.250000       1.00800           0
      1169 MEMB     9        POPC     H13B     HL       0.250000       1.00800           0
      1170 MEMB     9        POPC     H13C     HL       0.250000       1.00800           0
      1171 MEMB     9        POPC     C14      CTL5    -0.350000       12.0110           0
      1172 MEMB     9        POPC     H14A     HL       0.250000       1.00800           0
      1173 MEMB     9        POPC     H14B     HL       0.250000       1.00800           0
      1174 MEMB     9        POPC     H14C     HL       0.250000       1.00800           0
      1175 MEMB     9        POPC     C15      CTL5    -0.350000       12.0110           0
      1176 MEMB     9        POPC     H15A     HL       0.250000       1.00800           0
      1177 MEMB     9        POPC     H15B     HL       0.250000       1.00800           0
      1178 MEMB     9        POPC     H15C     HL       0.250000       1.00800           0
      1179 MEMB     9        POPC     C11      CTL2    -0.800000E-01   12.0110           0
      1180 MEMB     9        POPC     H11A     HAL2     0.900000E-01   1.00800           0
      1181 MEMB     9        POPC     H11B     HAL2     0.900000E-01   1.00800           0
      1182 MEMB     9        POPC     P        PL        1.50000       30.9740           0
      1183 MEMB     9        POPC     O13      O2L     -0.780000       15.9994           0
      1184 MEMB     9        POPC     O14      O2L     -0.780000       15.9994           0
      1185 MEMB     9        POPC     O12      OSLP    -0.570000       15.9994           0
      1186 MEMB     9        POPC     O11      OSLP    -0.570000       15.9994           0
      1187 MEMB     9        POPC     C1       CTL2    -0.800000E-01   12.0110           0
      1188 MEMB     9        POPC     HA       HAL2     0.900000E-01   1.00800           0
      1189 MEMB     9        POPC     HB       HAL2     0.900000E-01   1.00800           0
      1190 MEMB     9        POPC     C2       CTL1     0.170000       12.0110           0
      1191 MEMB     9        POPC     HS       HAL1     0.900000E-01   1.00800           0
      1192 MEMB     9        POPC     O21      OSL     -0.490000       15.9994           0
      1193 MEMB     9        POPC     C21      CL       0.900000       12.0110           0
      1194 MEMB     9        POPC     O22      OBL     -0.630000       15.9994           0
      1195 MEMB     9        POPC     C22      CTL2    -0.220000       12.0110           0
      1196 MEMB     9        POPC     H2R      HAL2     0.900000E-01   1.00800           0
      1197 MEMB     9        POPC     H2S      HAL2     0.900000E-01   1.00800           0
      1198 MEMB     9        POPC     C3       CTL2     0.800000E-01   12.0110           0
      1199 MEMB     9        POPC     HX       HAL2     0.900000E-01   1.00800           0
      1200 MEMB     9        POPC     HY       HAL2     0.900000E-01   1.00800           0
      1201 MEMB     9        POPC     O31      OSL     -0.490000       15.9994           0
      1202 MEMB     9        POPC     C31      CL       0.900000       12.0110           0
      1203 MEMB     9        POPC     O32      OBL     -0.630000       15.9994           0
      1204 MEMB     9        POPC     C32      CTL2    -0.220000       12.0110           0
      1205 MEMB     9        POPC     H2X      HAL2     0.900000E-01   1.00800           0
      1206 MEMB     9        POPC     H2Y      HAL2     0.900000E-01   1.00800           0
      1207 MEMB     9        POPC     C23      CTL2    -0.180000       12.0110           0
      1208 MEMB     9        POPC     H3R      HAL2     0.900000E-01   1.00800           0
      1209 MEMB     9        POPC     H3S      HAL2     0.900000E-01   1.00800           0
      1210 MEMB     9        POPC     C24      CTL2    -0.180000       12.0110           0
      1211 MEMB     9        POPC     H4R      HAL2     0.900000E-01   1.00800           0
      1212 MEMB     9        POPC     H4S      HAL2     0.900000E-01   1.00800           0
      1213 MEMB     9        POPC     C25      CTL2    -0.180000       12.0110           0
      1214 MEMB     9        POPC     H5R      HAL2     0.900000E-01   1.00800           0
      1215 MEMB     9        POPC     H5S      HAL2     0.900000E-01   1.00800           0
      1216 MEMB     9        POPC     C26      CTL2    -0.180000       12.0110           0
      1217 MEMB     9        POPC     H6R      HAL2     0.900000E-01   1.00800           0
      1218 MEMB     9        POPC     H6S      HAL2     0.900000E-01   1.00800           0
      1219 MEMB     9        POPC     C27      CTL2    -0.180000       12.0110           0
      1220 MEMB     9        POPC     H7R      HAL2     0.900000E-01   1.00800           0
      1221 MEMB     9        POPC     H7S      HAL2     0.900000E-01   1.00800           0
      1222 MEMB     9        POPC     C28      CTL2    -0.180000       12.0110           0
      1223 MEMB     9        POPC     H8R      HAL2     0.900000E-01   1.00800           0
      1224 MEMB     9        POPC     H8S      HAL2     0.900000E-01   1.00800           0
      1225 MEMB     9        POPC     C29      CEL1    -0.150000       12.0110           0
      1226 MEMB     9        POPC     H91      HEL1     0.150000       1.00800           0
      1227 MEMB     9        POPC     C210     CEL1    -0.150000       12.0110           0
      1228 MEMB     9        POPC     H101     HEL1     0.150000       1.00800           0
      1229 MEMB     9        POPC     C211     CTL2    -0.180000       12.0110           0
      1230 MEMB     9        POPC     H11R     HAL2     0.900000E-01   1.00800           0
      1231 MEMB     9        POPC     H11S     HAL2     0.900000E-01   1.00800           0
      1232 MEMB     9        POPC     C212     CTL2    -0.180000       12.0110           0
      1233 MEMB     9        POPC     H12R     HAL2     0.900000E-01   1.00800           0
      1234 MEMB     9        POPC     H12S     HAL2     0.900000E-01   1.00800           0
      1235 MEMB     9        POPC     C213     CTL2    -0.180000       12.0110           0
      1236 MEMB     9        POPC     H13R     HAL2     0.900000E-01   1.00800           0
      1237 MEMB     9        POPC     H13S     HAL2     0.900000E-01   1.00800           0
      1238 MEMB     9        POPC     C214     CTL2    -0.180000       12.0110           0
      1239 MEMB     9        POPC     H14R     HAL2     0.900000E-01   1.00800           0
      1240 MEMB     9        POPC     H14S     HAL2     0.900000E-01   1.00800           0
      1241 MEMB     9        POPC     C215     CTL2    -0.180000       12.0110           0
      1242 MEMB     9        POPC     H15R     HAL2     0.900000E-01   1.00800           0
      1243 MEMB     9        POPC     H15S     HAL2     0.900000E-01   1.00800           0
      1244 MEMB     9        POPC     C216     CTL2    -0.180000       12.0110           0
      1245 MEMB     9        POPC     H16R     HAL2     0.900000E-01   1.00800           0
      1246 MEMB     9        POPC     H16S     HAL2     0.900000E-01   1.00800           0
      1247 MEMB     9        POPC     C217     CTL2    -0.180000       12.0110           0
      1248 MEMB     9        POPC     H17R     HAL2     0.900000E-01   1.00800           0
      1249 MEMB     9        POPC     H17S     HAL2     0.900000E-01   1.00800           0
      1250 MEMB     9        POPC     C218     CTL3    -0.270000       12.0110           0
      1251 MEMB     9        POPC     H18R     HAL3     0.900000E-01   1.00800           0
      1252 MEMB     9        POPC     H18S     HAL3     0.900000E-01   1.00800           0
      1253 MEMB     9        POPC     H18T     HAL3     0.900000E-01   1.00800           0
      1254 MEMB     9        POPC     C33      CTL2    -0.180000       12.0110           0
      1255 MEMB     9        POPC     H3X      HAL2     0.900000E-01   1.00800           0
      1256 MEMB     9        POPC     H3Y      HAL2     0.900000E-01   1.00800           0
      1257 MEMB     9        POPC     C34      CTL2    -0.180000       12.0110           0
      1258 MEMB     9        POPC     H4X      HAL2     0.900000E-01   1.00800           0
      1259 MEMB     9        POPC     H4Y      HAL2     0.900000E-01   1.00800           0
      1260 MEMB     9        POPC     C35      CTL2    -0.180000       12.0110           0
      1261 MEMB     9        POPC     H5X      HAL2     0.900000E-01   1.00800           0
      1262 MEMB     9        POPC     H5Y      HAL2     0.900000E-01   1.00800           0
      1263 MEMB     9        POPC     C36      CTL2    -0.180000       12.0110           0
      1264 MEMB     9        POPC     H6X      HAL2     0.900000E-01   1.00800           0
      1265 MEMB     9        POPC     H6Y      HAL2     0.900000E-01   1.00800           0
      1266 MEMB     9        POPC     C37      CTL2    -0.180000       12.0110           0
      1267 MEMB     9        POPC     H7X      HAL2     0.900000E-01   1.00800           0
      1268 MEMB     9        POPC     H7Y      HAL2     0.900000E-01   1.00800           0
      1269 MEMB     9        POPC     C38      CTL2    -0.180000       12.0110           0
      1270 MEMB     9        POPC     H8X      HAL2     0.900000E-01   1.00800           0
      1271 MEMB     9        POPC     H8Y      HAL2     0.900000E-01   1.00800           0
      1272 MEMB     9        POPC     C39      CTL2    -0.180000       12.0110           0
      1273 MEMB     9        POPC     H9X      HAL2     0.900000E-01   1.00800           0
      1274 MEMB     9        POPC     H9Y      HAL2     0.900000E-01   1.00800           0
      1275 MEMB     9        POPC     C310     CTL2    -0.180000       12.0110           0
      1276 MEMB     9        POPC     H10X     HAL2     0.900000E-01   1.00800           0
      1277 MEMB     9        POPC     H10Y     HAL2     0.900000E-01   1.00800           0
      1278 MEMB     9        POPC     C311     CTL2    -0.180000       12.0110           0
      1279 MEMB     9        POPC     H11X     HAL2     0.900000E-01   1.00800           0
      1280 MEMB     9        POPC     H11Y     HAL2     0.900000E-01   1.00800           0
      1281 MEMB     9        POPC     C312     CTL2    -0.180000       12.0110           0
      1282 MEMB     9        POPC     H12X     HAL2     0.900000E-01   1.00800           0
      1283 MEMB     9        POPC     H12Y     HAL2     0.900000E-01   1.00800           0
      1284 MEMB     9        POPC     C313     CTL2    -0.180000       12.0110           0
      1285 MEMB     9        POPC     H13X     HAL2     0.900000E-01   1.00800           0
      1286 MEMB     9        POPC     H13Y     HAL2     0.900000E-01   1.00800           0
      1287 MEMB     9        POPC     C314     CTL2    -0.180000       12.0110           0
      1288 MEMB     9        POPC     H14X     HAL2     0.900000E-01   1.00800           0
      1289 MEMB     9        POPC     H14Y     HAL2     0.900000E-01   1.00800           0
      1290 MEMB     9        POPC     C315     CTL2    -0.180000       12.0110           0
      1291 MEMB     9        POPC     H15X     HAL2     0.900000E-01   1.00800           0
      1292 MEMB     9        POPC     H15Y     HAL2     0.900000E-01   1.00800           0
      1293 MEMB     9        POPC     C316     CTL3    -0.270000       12.0110           0
      1294 MEMB     9        POPC     H16X     HAL3     0.900000E-01   1.00800           0
      1295 MEMB     9        POPC     H16Y     HAL3     0.900000E-01   1.00800           0
      1296 MEMB     9        POPC     H16Z     HAL3     0.900000E-01   1.00800           0
      1297 MEMB     10       POPS     N        NH3L    -0.300000       14.0070           0
      1298 MEMB     10       POPS     HN1      HCL      0.330000       1.00800           0
      1299 MEMB     10       POPS     HN2      HCL      0.330000       1.00800           0
      1300 MEMB     10       POPS     HN3      HCL      0.330000       1.00800           0
      1301 MEMB     10       POPS     C12      CTL1     0.210000       12.0110           0
      1302 MEMB     10       POPS     H12A     HBL      0.100000       1.00800           0
      1303 MEMB     10       POPS     C13      CCL      0.340000       12.0110           0
      1304 MEMB     10       POPS     O13A     OCL     -0.670000       15.9994           0
      1305 MEMB     10       POPS     O13B     OCL     -0.670000       15.9994           0
      1306 MEMB     10       POPS     C11      CTL2    -0.800000E-01   12.0110           0
      1307 MEMB     10       POPS     H11A     HAL2     0.900000E-01   1.00800           0
      1308 MEMB     10       POPS     H11B     HAL2     0.900000E-01   1.00800           0
      1309 MEMB     10       POPS     P        PL        1.50000       30.9740           0
      1310 MEMB     10       POPS     O13      O2L     -0.780000       15.9994           0
      1311 MEMB     10       POPS     O14      O2L     -0.780000       15.9994           0
      1312 MEMB     10       POPS     O12      OSLP    -0.570000       15.9994           0
      1313 MEMB     10       POPS     O11      OSLP    -0.570000       15.9994           0
      1314 MEMB     10       POPS     C1       CTL2    -0.800000E-01   12.0110           0
      1315 MEMB     10       POPS     HA       HAL2     0.900000E-01   1.00800           0
      1316 MEMB     10       POPS     HB       HAL2     0.900000E-01   1.00800           0
      1317 MEMB     10       POPS     C2       CTL1     0.170000       12.0110           0
      1318 MEMB     10       POPS     HS       HAL1     0.900000E-01   1.00800           0
      1319 MEMB     10       POPS     O21      OSL     -0.490000       15.9994           0
      1320 MEMB     10       POPS     C21      CL       0.900000       12.0110           0
      1321 MEMB     10       POPS     O22      OBL     -0.630000       15.9994           0
      1322 MEMB     10       POPS     C22      CTL2    -0.220000       12.0110           0
      1323 MEMB     10       POPS     H2R      HAL2     0.900000E-01   1.00800           0
      1324 MEMB     10       POPS     H2S      HAL2     0.900000E-01   1.00800           0
      1325 MEMB     10       POPS     C3       CTL2     0.800000E-01   12.0110           0
      1326 MEMB     10       POPS     HX       HAL2     0.900000E-01   1.00800           0
      1327 MEMB     10       POPS     HY       HAL2     0.900000E-01   1.00800           0
      1328 MEMB     10       POPS     O31      OSL     -0.490000       15.9994           0
      1329 MEMB     10       POPS     C31      CL       0.900000       12.0110           0
      1330 MEMB     10       POPS     O32      OBL     -0.630000       15.9994           0
      1331 MEMB     10       POPS     C32      CTL2    -0.220000       12.0110           0
      1332 MEMB     10       POPS     H2X      HAL2     0.900000E-01   1.00800           0
      1333 MEMB     10       POPS     H2Y      HAL2     0.900000E-01   1.00800           0
      1334 MEMB     10       POPS     C23      CTL2    -0.180000       12.0110           0
      1335 MEMB     10       POPS     H3R      HAL2     0.900000E-01   1.00800           0
      1336 MEMB     10       POPS     H3S      HAL2     0.900000E-01   1.00800           0
      1337 MEMB     10       POPS     C24      CTL2    -0.180000       12.0110           0
      1338 MEMB     10       POPS     H4R      HAL2     0.900000E-01   1.00800           0
      1339 MEMB     10       POPS     H4S      HAL2     0.900000E-01   1.00800           0
      1340 MEMB     10       POPS     C25      CTL2    -0.180000       12.0110           0
      1341 MEMB     10       POPS     H5R      HAL2     0.900000E-01   1.00800           0
      1342 MEMB     10       POPS     H5S      HAL2     0.900000E-01   1.00800           0
      1343 MEMB     10       POPS     C26      CTL2    -0.180000       12.0110           0
      1344 MEMB     10       POPS     H6R      HAL2     0.900000E-01   1.00800           0
      1345 MEMB     10       POPS     H6S      HAL2     0.900000E-01   1.00800           0
      1346 MEMB     10       POPS     C27      CTL2    -0.180000       12.0110           0
      1347 MEMB     10       POPS     H7R      HAL2     0.900000E-01   1.00800           0
      1348 MEMB     10       POPS     H7S      HAL2     0.900000E-01   1.00800           0
      1349 MEMB     10       POPS     C28      CTL2    -0.180000       12.0110           0
      1350 MEMB     10       POPS     H8R      HAL2     0.900000E-01   1.00800           0
      1351 MEMB     10       POPS     H8S      HAL2     0.900000E-01   1.00800           0
      1352 MEMB     10       POPS     C29      CEL1    -0.150000       12.0110           0
      1353 MEMB     10       POPS     H91      HEL1     0.150000       1.00800           0
      1354 MEMB     10       POPS     C210     CEL1    -0.150000       12.0110           0
      1355 MEMB     10       POPS     H101     HEL1     0.150000       1.00800           0
      1356 MEMB     10       POPS     C211     CTL2    -0.180000       12.0110           0
      1357 MEMB     10       POPS     H11R     HAL2     0.900000E-01   1.00800           0
      1358 MEMB     10       POPS     H11S     HAL2     0.900000E-01   1.00800           0
      1359 MEMB     10       POPS     C212     CTL2    -0.180000       12.0110           0
      1360 MEMB     10       POPS     H12R     HAL2     0.900000E-01   1.00800           0
      1361 MEMB     10       POPS     H12S     HAL2     0.900000E-01   1.00800           0
      1362 MEMB     10       POPS     C213     CTL2    -0.180000       12.0110           0
      1363 MEMB     10       POPS     H13R     HAL2     0.900000E-01   1.00800           0
      1364 MEMB     10       POPS     H13S     HAL2     0.900000E-01   1.00800           0
      1365 MEMB     10       POPS     C214     CTL2    -0.180000       12.0110           0
      1366 MEMB     10       POPS     H14R     HAL2     0.900000E-01   1.00800           0
      1367 MEMB     10       POPS     H14S     HAL2     0.900000E-01   1.00800           0
      1368 MEMB     10       POPS     C215     CTL2    -0.180000       12.0110           0
      1369 MEMB     10       POPS     H15R     HAL2     0.900000E-01   1.00800           0
      1370 MEMB     10       POPS     H15S     HAL2     0.900000E-01   1.00800           0
      1371 MEMB     10       POPS     C216     CTL2    -0.180000       12.0110           0
      1372 MEMB     10       POPS     H16R     HAL2     0.900000E-01   1.00800           0
      1373 MEMB     10       POPS     H16S     HAL2     0.900000E-01   1.00800           0
      1374 MEMB     10       POPS     C217     CTL2    -0.180000       12.0110           0
      1375 MEMB     10       POPS     H17R     HAL2     0.900000E-01   1.00800           0
      1376 MEMB     10       POPS     H17S     HAL2     0.900000E-01   1.00800           0
      1377 MEMB     10       POPS     C218     CTL3    -0.270000       12.0110           0
      1378 MEMB     10       POPS     H18R     HAL3     0.900000E-01   1.00800           0
      1379 MEMB     10       POPS     H18S     HAL3     0.900000E-01   1.00800           0
      1380 MEMB     10       POPS     H18T     HAL3     0.900000E-01   1.00800           0
      1381 MEMB     10       POPS     C33      CTL2    -0.180000       12.0110           0
      1382 MEMB     10       POPS     H3X      HAL2     0.900000E-01   1.00800           0
      1383 MEMB     10       POPS     H3Y      HAL2     0.900000E-01   1.00800           0
      1384 MEMB     10       POPS     C34      CTL2    -0.180000       12.0110           0
      1385 MEMB     10       POPS     H4X      HAL2     0.900000E-01   1.00800           0
      1386 MEMB     10       POPS     H4Y      HAL2     0.900000E-01   1.00800           0
      1387 MEMB     10       POPS     C35      CTL2    -0.180000       12.0110           0
      1388 MEMB     10       POPS     H5X      HAL2     0.900000E-01   1.00800           0
      1389 MEMB     10       POPS     H5Y      HAL2     0.900000E-01   1.00800           0
      1390 MEMB     10       POPS     C36      CTL2    -0.180000       12.0110           0
      1391 MEMB     10       POPS     H6X      HAL2     0.900000E-01   1.00800           0
      1392 MEMB     10       POPS     H6Y      HAL2     0.900000E-01   1.00800           0
      1393 MEMB     10       POPS     C37      CTL2    -0.180000       12.0110           0
      1394 MEMB     10       POPS     H7X      HAL2     0.900000E-01   1.00800           0
      1395 MEMB     10       POPS     H7Y      HAL2     0.900000E-01   1.00800           0
      1396 MEMB     10       POPS     C38      CTL2    -0.180000       12.0110           0
      1397 MEMB     10       POPS     H8X      HAL2     0.900000E-01   1.00800           0
      1398 MEMB     10       POPS     H8Y      HAL2     0.900000E-01   1.00800           0
      1399 MEMB     10       POPS     C39      CTL2    -0.180000       12.0110           0
      1400 MEMB     10       POPS     H9X      HAL2     0.900000E-01   1.00800           0
      1401 MEMB     10       POPS     H9Y      HAL2     0.900000E-01   1.00800           0
      1402 MEMB     10       POPS     C310     CTL2    -0.180000       12.0110           0
      1403 MEMB     10       POPS     H10X     HAL2     0.900000E-01   1.00800           0
      1404 MEMB     10       POPS     H10Y     HAL2     0.900000E-01   1.00800           0
      1405 MEMB     10       POPS     C311     CTL2    -0.180000       12.0110           0
      1406 MEMB     10       POPS     H11X     HAL2     0.900000E-01   1.00800           0
      1407 MEMB     10       POPS     H11Y     HAL2     0.900000E-01   1.00800           0
      1408 MEMB     10       POPS     C312     CTL2    -0.180000       12.0110           0
      1409 MEMB     10       POPS     H12X     HAL2     0.900000E-01   1.00800           0
      1410 MEMB     10       POPS     H12Y     HAL2     0.900000E-01   1.00800           0
      1411 MEMB     10       POPS     C313     CTL2    -0.180000       12.0110           0
      1412 MEMB     10       POPS     H13X     HAL2     0.900000E-01   1.00800           0
      1413 MEMB     10       POPS     H13Y     HAL2     0.900000E-01   1.00800           0
      1414 MEMB     10       POPS     C314     CTL2    -0.180000       12.0110           0
      1415 MEMB     10       POPS     H14X     HAL2     0.900000E-01   1.00800           0
      1416 MEMB     10       POPS     H14Y     HAL2     0.900000E-01   1.00800           0
      1417 MEMB     10       POPS     C315     CTL2    -0.180000       12.0110           0
      1418 MEMB     10       POPS     H15X     HAL2     0.900000E-01   1.00800           0
      1419 MEMB     10       POPS     H15Y     HAL2     0.900000E-01   1.00800           0
      1420 MEMB     10       POPS     C316     CTL3    -0.270000       12.0110           0
      1421 MEMB     10       POPS     H16X     HAL3     0.900000E-01   1.00800           0
      1422 MEMB     10       POPS     H16Y     HAL3     0.900000E-01   1.00800           0
      1423 MEMB     10       POPS     H16Z     HAL3     0.900000E-01   1.00800           0
      1424 MEMB     11       POPS     N        NH3L    -0.300000       14.0070           0
      1425 MEMB     11       POPS     HN1      HCL      0.330000       1.00800           0
      1426 MEMB     11       POPS     HN2      HCL      0.330000       1.00800           0
      1427 MEMB     11       POPS     HN3      HCL      0.330000       1.00800           0
      1428 MEMB     11       POPS     C12      CTL1     0.210000       12.0110           0
      1429 MEMB     11       POPS     H12A     HBL      0.100000       1.00800           0
      1430 MEMB     11       POPS     C13      CCL      0.340000       12.0110           0
      1431 MEMB     11       POPS     O13A     OCL     -0.670000       15.9994           0
      1432 MEMB     11       POPS     O13B     OCL     -0.670000       15.9994           0
      1433 MEMB     11       POPS     C11      CTL2    -0.800000E-01   12.0110           0
      1434 MEMB     11       POPS     H11A     HAL2     0.900000E-01   1.00800           0
      1435 MEMB     11       POPS     H11B     HAL2     0.900000E-01   1.00800           0
      1436 MEMB     11       POPS     P        PL        1.50000       30.9740           0
      1437 MEMB     11       POPS     O13      O2L     -0.780000       15.9994           0
      1438 MEMB     11       POPS     O14      O2L     -0.780000       15.9994           0
      1439 MEMB     11       POPS     O12      OSLP    -0.570000       15.9994           0
      1440 MEMB     11       POPS     O11      OSLP    -0.570000       15.9994           0
      1441 MEMB     11       POPS     C1       CTL2    -0.800000E-01   12.0110           0
      1442 MEMB     11       POPS     HA       HAL2     0.900000E-01   1.00800           0
      1443 MEMB     11       POPS     HB       HAL2     0.900000E-01   1.00800           0
      1444 MEMB     11       POPS     C2       CTL1     0.170000       12.0110           0
      1445 MEMB     11       POPS     HS       HAL1     0.900000E-01   1.00800           0
      1446 MEMB     11       POPS     O21      OSL     -0.490000       15.9994           0
      1447 MEMB     11       POPS     C21      CL       0.900000       12.0110           0
      1448 MEMB     11       POPS     O22      OBL     -0.630000       15.9994           0
      1449 MEMB     11       POPS     C22      CTL2    -0.220000       12.0110           0
      1450 MEMB     11       POPS     H2R      HAL2     0.900000E-01   1.00800           0
      1451 MEMB     11       POPS     H2S      HAL2     0.900000E-01   1.00800           0
      1452 MEMB     11       POPS     C3       CTL2     0.800000E-01   12.0110           0
      1453 MEMB     11       POPS     HX       HAL2     0.900000E-01   1.00800           0
      1454 MEMB     11       POPS     HY       HAL2     0.900000E-01   1.00800           0
      1455 MEMB     11       POPS     O31      OSL     -0.490000       15.9994           0
      1456 MEMB     11       POPS     C31      CL       0.900000       12.0110           0
      1457 MEMB     11       POPS     O32      OBL     -0.630000       15.9994           0
      1458 MEMB     11       POPS     C32      CTL2    -0.220000       12.0110           0
      1459 MEMB     11       POPS     H2X      HAL2     0.900000E-01   1.00800           0
      1460 MEMB     11       POPS     H2Y      HAL2     0.900000E-01   1.00800           0
      1461 MEMB     11       POPS     C23      CTL2    -0.180000       12.0110           0
      1462 MEMB     11       POPS     H3R      HAL2     0.900000E-01   1.00800           0
      1463 MEMB     11       POPS     H3S      HAL2     0.900000E-01   1.00800           0
      1464 MEMB     11       POPS     C24      CTL2    -0.180000       12.0110           0
      1465 MEMB     11       POPS     H4R      HAL2     0.900000E-01   1.00800           0
      1466 MEMB     11       POPS     H4S      HAL2     0.900000E-01   1.00800           0
      1467 MEMB     11       POPS     C25      CTL2    -0.180000       12.0110           0
      1468 MEMB     11       POPS     H5R      HAL2     0.900000E-01   1.00800           0
      1469 MEMB     11       POPS     H5S      HAL2     0.900000E-01   1.00800           0
      1470 MEMB     11       POPS     C26      CTL2    -0.180000       12.0110           0
      1471 MEMB     11       POPS     H6R      HAL2     0.900000E-01   1.00800           0
      1472 MEMB     11       POPS     H6S      HAL2     0.900000E-01   1.00800           0
      1473 MEMB     11       POPS     C27      CTL2    -0.180000       12.0110           0
      1474 MEMB     11       POPS     H7R      HAL2     0.900000E-01   1.00800           0
      1475 MEMB     11       POPS     H7S      HAL2     0.900000E-01   1.00800           0
      1476 MEMB     11       POPS     C28      CTL2    -0.180000       12.0110           0
      1477 MEMB     11       POPS     H8R      HAL2     0.900000E-01   1.00800           0
      1478 MEMB     11       POPS     H8S      HAL2     0.900000E-01   1.00800           0
      1479 MEMB     11       POPS     C29      CEL1    -0.150000       12.0110           0
      1480 MEMB     11       POPS     H91      HEL1     0.150000       1.00800           0
      1481 MEMB     11       POPS     C210     CEL1    -0.150000       12.0110           0
      1482 MEMB     11       POPS     H101     HEL1     0.150000       1.00800           0
      1483 MEMB     11       POPS     C211     CTL2    -0.180000       12.0110           0
      1484 MEMB     11       POPS     H11R     HAL2     0.900000E-01   1.00800           0
      1485 MEMB     11       POPS     H11S     HAL2     0.900000E-01   1.00800           0
      1486 MEMB     11       POPS     C212     CTL2    -0.180000       12.0110           0
      1487 MEMB     11       POPS     H12R     HAL2     0.900000E-01   1.00800           0
      1488 MEMB     11       POPS     H12S     HAL2     0.900000E-01   1.00800           0
      1489 MEMB     11       POPS     C213     CTL2    -0.180000       12.0110           0
      1490 MEMB     11       POPS     H13R     HAL2     0.900000E-01   1.00800           0
      1491 MEMB     11       POPS     H13S     HAL2     0.900000E-01   1.00800           0
      1492 MEMB     11       POPS     C214     CTL2    -0.180000       12.0110           0
      1493 MEMB     11       POPS     H14R     HAL2     0.900000E-01   1.00800           0
      1494 MEMB     11       POPS     H14S     HAL2     0.900000E-01   1.00800           0
      1495 MEMB     11       POPS     C215     CTL2    -0.180000       12.0110           0
      1496 MEMB     11       POPS     H15R     HAL2     0.900000E-01   1.00800           0
      1497 MEMB     11       POPS     H15S     HAL2     0.900000E-01   1.00800           0
      1498 MEMB     11       POPS     C216     CTL2    -0.180000       12.0110           0
      1499 MEMB     11       POPS     H16R     HAL2     0.900000E-01   1.00800           0
      1500 MEMB     11       POPS     H16S     HAL2     0.900000E-01   1.00800           0
      1501 MEMB     11       POPS     C217     CTL2    -0.180000       12.0110           0
      1502 MEMB     11       POPS     H17R     HAL2     0.900000E-01   1.00800           0
      1503 MEMB     11       POPS     H17S     HAL2     0.900000E-01   1.00800           0
      1504 MEMB     11       POPS     C218     CTL3    -0.270000       12.0110           0
      1505 MEMB     11       POPS     H18R     HAL3     0.900000E-01   1.00800           0
      1506 MEMB     11       POPS     H18S     HAL3     0.900000E-01   1.00800           0
      1507 MEMB     11       POPS     H18T     HAL3     0.900000E-01   1.00800           0
      1508 MEMB     11       POPS     C33      CTL2    -0.180000       12.0110           0
      1509 MEMB     11       POPS     H3X      HAL2     0.900000E-01   1.00800           0
      1510 MEMB     11       POPS     H3Y      HAL2     0.900000E-01   1.00800           0
      1511 MEMB     11       POPS     C34      CTL2    -0.180000       12.0110           0
      1512 MEMB     11       POPS     H4X      HAL2     0.900000E-01   1.00800           0
      1513 MEMB     11       POPS     H4Y      HAL2     0.900000E-01   1.00800           0
      1514 MEMB     11       POPS     C35      CTL2    -0.180000       12.0110           0
      1515 MEMB     11       POPS     H5X      HAL2     0.900000E-01   1.00800           0
      1516 MEMB     11       POPS     H5Y      HAL2     0.900000E-01   1.00800           0
      1517 MEMB     11       POPS     C36      CTL2    -0.180000       12.0110           0
      1518 MEMB     11       POPS     H6X      HAL2     0.900000E-01   1.00800           0
      1519 MEMB     11       POPS     H6Y      HAL2     0.900000E-01   1.00800           0
      1520 MEMB     11       POPS     C37      CTL2    -0.180000       12.0110           0
      1521 MEMB     11       POPS     H7X      HAL2     0.900000E-01   1.00800           0
      1522 MEMB     11       POPS     H7Y      HAL2     0.900000E-01   1.00800           0
      1523 MEMB     11       POPS     C38      CTL2    -0.180000       12.0110           0
      1524 MEMB     11       POPS     H8X      HAL2     0.900000E-01   1.00800           0
      1525 MEMB     11       POPS     H8Y      HAL2     0.900000E-01   1.00800           0
      1526 MEMB     11       POPS     C39      CTL2    -0.180000       12.0110           0
      1527 MEMB     11       POPS     H9X      HAL2     0.900000E-01   1.00800           0
      1528 MEMB     11       POPS     H9Y      HAL2     0.900000E-01   1.00800           0
      1529 MEMB     11       POPS     C310     CTL2    -0.180000       12.0110           0
      1530 MEMB     11       POPS     H10X     HAL2     0.900000E-01   1.00800           0
      1531 MEMB     11       POPS     H10Y     HAL2     0.900000E-01   1.00800           0
      1532 MEMB     11       POPS     C311     CTL2    -0.180000       12.0110           0
      1533 MEMB     11       POPS     H11X     HAL2     0.900000E-01   1.00800           0
      1534 MEMB     11       POPS     H11Y     HAL2     0.900000E-01   1.00800           0
      1535 MEMB     11       POPS     C312     CTL2    -0.180000       12.0110           0
      1536 MEMB     11       POPS     H12X     HAL2     0.900000E-01   1.00800           0
      1537 MEMB     11       POPS     H12Y     HAL2     0.900000E-01   1.00800           0
      1538 MEMB     11       POPS     C313     CTL2    -0.180000       12.0110           0
      1539 MEMB     11       POPS     H13X     HAL2     0.900000E-01   1.00800           0
      1540 MEMB     11       POPS     H13Y     HAL2     0.900000E-01   1.00800           0
      1541 MEMB     11       POPS     C314     CTL2    -0.180000       12.0110           0
      1542 MEMB     11       POPS     H14X     HAL2     0.900000E-01   1.00800           0
      1543 MEMB     11       POPS     H14Y     HAL2     0.900000E-01   1.00800           0
      1544 MEMB     11       POPS     C315     CTL2    -0.180000       12.0110           0
      1545 MEMB     11       POPS     H15X     HAL2     0.900000E-01   1.00800           0
      1546 MEMB     11       POPS     H15Y     HAL2     0.900000E-01   1.00800           0
      1547 MEMB     11       POPS     C316     CTL3    -0.270000       12.0110           0
      1548 MEMB     11       POPS     H16X     HAL3     0.900000E-01   1.00800           0
      1549 MEMB     11       POPS     H16Y     HAL3     0.900000E-01   1.00800           0
      1550 MEMB     11       POPS     H16Z     HAL3     0.900000E-01   1.00800           0
      1551 MEMB     12       POPC     N        NTL     -0.600000       14.0070           0
      1552 MEMB     12       POPC     C12      CTL2    -0.100000       12.0110           0
      1553 MEMB     12       POPC     H12A     HL       0.250000       1.00800           0
      1554 MEMB     12       POPC     H12B     HL       0.250000       1.00800           0
      1555 MEMB     12       POPC     C13      CTL5    -0.350000       12.0110           0
      1556 MEMB     12       POPC     H13A     HL       0.250000       1.00800           0
      1557 MEMB     12       POPC     H13B     HL       0.250000       1.00800           0
      1558 MEMB     12       POPC     H13C     HL       0.250000       1.00800           0
      1559 MEMB     12       POPC     C14      CTL5    -0.350000       12.0110           0
      1560 MEMB     12       POPC     H14A     HL       0.250000       1.00800           0
      1561 MEMB     12       POPC     H14B     HL       0.250000       1.00800           0
      1562 MEMB     12       POPC     H14C     HL       0.250000       1.00800           0
      1563 MEMB     12       POPC     C15      CTL5    -0.350000       12.0110           0
      1564 MEMB     12       POPC     H15A     HL       0.250000       1.00800           0
      1565 MEMB     12       POPC     H15B     HL       0.250000       1.00800           0
      1566 MEMB     12       POPC     H15C     HL       0.250000       1.00800           0
      1567 MEMB     12       POPC     C11      CTL2    -0.800000E-01   12.0110           0
      1568 MEMB     12       POPC     H11A     HAL2     0.900000E-01   1.00800           0
      1569 MEMB     12       POPC     H11B     HAL2     0.900000E-01   1.00800           0
      1570 MEMB     12       POPC     P        PL        1.50000       30.9740           0
      1571 MEMB     12       POPC     O13      O2L     -0.780000       15.9994           0
      1572 MEMB     12       POPC     O14      O2L     -0.780000       15.9994           0
      1573 MEMB     12       POPC     O12      OSLP    -0.570000       15.9994           0
      1574 MEMB     12       POPC     O11      OSLP    -0.570000       15.9994           0
      1575 MEMB     12       POPC     C1       CTL2    -0.800000E-01   12.0110           0
      1576 MEMB     12       POPC     HA       HAL2     0.900000E-01   1.00800           0
      1577 MEMB     12       POPC     HB       HAL2     0.900000E-01   1.00800           0
      1578 MEMB     12       POPC     C2       CTL1     0.170000       12.0110           0
      1579 MEMB     12       POPC     HS       HAL1     0.900000E-01   1.00800           0
      1580 MEMB     12       POPC     O21      OSL     -0.490000       15.9994           0
      1581 MEMB     12       POPC     C21      CL       0.900000       12.0110           0
      1582 MEMB     12       POPC     O22      OBL     -0.630000       15.9994           0
      1583 MEMB     12       POPC     C22      CTL2    -0.220000       12.0110           0
      1584 MEMB     12       POPC     H2R      HAL2     0.900000E-01   1.00800           0
      1585 MEMB     12       POPC     H2S      HAL2     0.900000E-01   1.00800           0
      1586 MEMB     12       POPC     C3       CTL2     0.800000E-01   12.0110           0
      1587 MEMB     12       POPC     HX       HAL2     0.900000E-01   1.00800           0
      1588 MEMB     12       POPC     HY       HAL2     0.900000E-01   1.00800           0
      1589 MEMB     12       POPC     O31      OSL     -0.490000       15.9994           0
      1590 MEMB     12       POPC     C31      CL       0.900000       12.0110           0
      1591 MEMB     12       POPC     O32      OBL     -0.630000       15.9994           0
      1592 MEMB     12       POPC     C32      CTL2    -0.220000       12.0110           0
      1593 MEMB     12       POPC     H2X      HAL2     0.900000E-01   1.00800           0
      1594 MEMB     12       POPC     H2Y      HAL2     0.900000E-01   1.00800           0
      1595 MEMB     12       POPC     C23      CTL2    -0.180000       12.0110           0
      1596 MEMB     12       POPC     H3R      HAL2     0.900000E-01   1.00800           0
      1597 MEMB     12       POPC     H3S      HAL2     0.900000E-01   1.00800           0
      1598 MEMB     12       POPC     C24      CTL2    -0.180000       12.0110           0
      1599 MEMB     12       POPC     H4R      HAL2     0.900000E-01   1.00800           0
      1600 MEMB     12       POPC     H4S      HAL2     0.900000E-01   1.00800           0
      1601 MEMB     12       POPC     C25      CTL2    -0.180000       12.0110           0
      1602 MEMB     12       POPC     H5R      HAL2     0.900000E-01   1.00800           0
      1603 MEMB     12       POPC     H5S      HAL2     0.900000E-01   1.00800           0
      1604 MEMB     12       POPC     C26      CTL2    -0.180000       12.0110           0
      1605 MEMB     12       POPC     H6R      HAL2     0.900000E-01   1.00800           0
      1606 MEMB     12       POPC     H6S      HAL2     0.900000E-01   1.00800           0
      1607 MEMB     12       POPC     C27      CTL2    -0.180000       12.0110           0
      1608 MEMB     12       POPC     H7R      HAL2     0.900000E-01   1.00800           0
      1609 MEMB     12       POPC     H7S      HAL2     0.900000E-01   1.00800           0
      1610 MEMB     12       POPC     C28      CTL2    -0.180000       12.0110           0
      1611 MEMB     12       POPC     H8R      HAL2     0.900000E-01   1.00800           0
      1612 MEMB     12       POPC     H8S      HAL2     0.900000E-01   1.00800           0
      1613 MEMB     12       POPC     C29      CEL1    -0.150000       12.0110           0
      1614 MEMB     12       POPC     H91      HEL1     0.150000       1.00800           0
      1615 MEMB     12       POPC     C210     CEL1    -0.150000       12.0110           0
      1616 MEMB     12       POPC     H101     HEL1     0.150000       1.00800           0
      1617 MEMB     12       POPC     C211     CTL2    -0.180000       12.0110           0
      1618 MEMB     12       POPC     H11R     HAL2     0.900000E-01   1.00800           0
      1619 MEMB     12       POPC     H11S     HAL2     0.900000E-01   1.00800           0
      1620 MEMB     12       POPC     C212     CTL2    -0.180000       12.0110           0
      1621 MEMB     12       POPC     H12R     HAL2     0.900000E-01   1.00800           0
      1622 MEMB     12       POPC     H12S     HAL2     0.900000E-01   1.00800           0
      1623 MEMB     12       POPC     C213     CTL2    -0.180000       12.0110           0
      1624 MEMB     12       POPC     H13R     HAL2     0.900000E-01   1.00800           0
      1625 MEMB     12       POPC     H13S     HAL2     0.900000E-01   1.00800           0
      1626 MEMB     12       POPC     C214     CTL2    -0.180000       12.0110           0
      1627 MEMB     12       POPC     H14R     HAL2     0.900000E-01   1.00800           0
      1628 MEMB     12       POPC     H14S     HAL2     0.900000E-01   1.00800           0
      1629 MEMB     12       POPC     C215     CTL2    -0.180000       12.0110           0
      1630 MEMB     12       POPC     H15R     HAL2     0.900000E-01   1.00800           0
      1631 MEMB     12       POPC     H15S     HAL2     0.900000E-01   1.00800           0
      1632 MEMB     12       POPC     C216     CTL2    -0.180000       12.0110           0
      1633 MEMB     12       POPC     H16R     HAL2     0.900000E-01   1.00800           0
      1634 MEMB     12       POPC     H16S     HAL2     0.900000E-01   1.00800           0
      1635 MEMB     12       POPC     C217     CTL2    -0.180000       12.0110           0
      1636 MEMB     12       POPC     H17R     HAL2     0.900000E-01   1.00800           0
      1637 MEMB     12       POPC     H17S     HAL2     0.900000E-01   1.00800           0
      1638 MEMB     12       POPC     C218     CTL3    -0.270000       12.0110           0
      1639 MEMB     12       POPC     H18R     HAL3     0.900000E-01   1.00800           0
      1640 MEMB     12       POPC     H18S     HAL3     0.900000E-01   1.00800           0
      1641 MEMB     12       POPC     H18T     HAL3     0.900000E-01   1.00800           0
      1642 MEMB     12       POPC     C33      CTL2    -0.180000       12.0110           0
      1643 MEMB     12       POPC     H3X      HAL2     0.900000E-01   1.00800           0
      1644 MEMB     12       POPC     H3Y      HAL2     0.900000E-01   1.00800           0
      1645 MEMB     12       POPC     C34      CTL2    -0.180000       12.0110           0
      1646 MEMB     12       POPC     H4X      HAL2     0.900000E-01   1.00800           0
      1647 MEMB     12       POPC     H4Y      HAL2     0.900000E-01   1.00800           0
      1648 MEMB     12       POPC     C35      CTL2    -0.180000       12.0110           0
      1649 MEMB     12       POPC     H5X      HAL2     0.900000E-01   1.00800           0
      1650 MEMB     12       POPC     H5Y      HAL2     0.900000E-01   1.00800           0
      1651 MEMB     12       POPC     C36      CTL2    -0.180000       12.0110           0
      1652 MEMB     12       POPC     H6X      HAL2     0.900000E-01   1.00800           0
      1653 MEMB     12       POPC     H6Y      HAL2     0.900000E-01   1.00800           0
      1654 MEMB     12       POPC     C37      CTL2    -0.180000       12.0110           0
      1655 MEMB     12       POPC     H7X      HAL2     0.900000E-01   1.00800           0
      1656 MEMB     12       POPC     H7Y      HAL2     0.900000E-01   1.00800           0
      1657 MEMB     12       POPC     C38      CTL2    -0.180000       12.0110           0
      1658 MEMB     12       POPC     H8X      HAL2     0.900000E-01   1.00800           0
      1659 MEMB     12       POPC     H8Y      HAL2     0.900000E-01   1.00800           0
      1660 MEMB     12       POPC     C39      CTL2    -0.180000       12.0110           0
      1661 MEMB     12       POPC     H9X      HAL2     0.900000E-01   1.00800           0
      1662 MEMB     12       POPC     H9Y      HAL2     0.900000E-01   1.00800           0
      1663 MEMB     12       POPC     C310     CTL2    -0.180000       12.0110           0
      1664 MEMB     12       POPC     H10X     HAL2     0.900000E-01   1.00800           0
      1665 MEMB     12       POPC     H10Y     HAL2     0.900000E-01   1.00800           0
      1666 MEMB     12       POPC     C311     CTL2    -0.180000       12.0110           0
      1667 MEMB     12       POPC     H11X     HAL2     0.900000E-01   1.00800           0
      1668 MEMB     12       POPC     H11Y     HAL2     0.900000E-01   1.00800           0
      1669 MEMB     12       POPC     C312     CTL2    -0.180000       12.0110           0
      1670 MEMB     12       POPC     H12X     HAL2     0.900000E-01   1.00800           0
      1671 MEMB     12       POPC     H12Y     HAL2     0.900000E-01   1.00800           0
      1672 MEMB     12       POPC     C313     CTL2    -0.180000       12.0110           0
      1673 MEMB     12       POPC     H13X     HAL2     0.900000E-01   1.00800           0
      1674 MEMB     12       POPC     H13Y     HAL2     0.900000E-01   1.00800           0
      1675 MEMB     12       POPC     C314     CTL2    -0.180000       12.0110           0
      1676 MEMB     12       POPC     H14X     HAL2     0.900000E-01   1.00800           0
      1677 MEMB     12       POPC     H14Y     HAL2     0.900000E-01   1.00800           0
      1678 MEMB     12       POPC     C315     CTL2    -0.180000       12.0110           0
      1679 MEMB     12       POPC     H15X     HAL2     0.900000E-01   1.00800           0
      1680 MEMB     12       POPC     H15Y     HAL2     0.900000E-01   1.00800           0
      1681 MEMB     12       POPC     C316     CTL3    -0.270000       12.0110           0
      1682 MEMB     12       POPC     H16X     HAL3     0.900000E-01   1.00800           0
      1683 MEMB     12       POPC     H16Y     HAL3     0.900000E-01   1.00800           0
      1684 MEMB     12       POPC     H16Z     HAL3     0.900000E-01   1.00800           0
      1685 MEMB     13       POPS     N        NH3L    -0.300000       14.0070           0
      1686 MEMB     13       POPS     HN1      HCL      0.330000       1.00800           0
      1687 MEMB     13       POPS     HN2      HCL      0.330000       1.00800           0
      1688 MEMB     13       POPS     HN3      HCL      0.330000       1.00800           0
      1689 MEMB     13       POPS     C12      CTL1     0.210000       12.0110           0
      1690 MEMB     13       POPS     H12A     HBL      0.100000       1.00800           0
      1691 MEMB     13       POPS     C13      CCL      0.340000       12.0110           0
      1692 MEMB     13       POPS     O13A     OCL     -0.670000       15.9994           0
      1693 MEMB     13       POPS     O13B     OCL     -0.670000       15.9994           0
      1694 MEMB     13       POPS     C11      CTL2    -0.800000E-01   12.0110           0
      1695 MEMB     13       POPS     H11A     HAL2     0.900000E-01   1.00800           0
      1696 MEMB     13       POPS     H11B     HAL2     0.900000E-01   1.00800           0
      1697 MEMB     13       POPS     P        PL        1.50000       30.9740           0
      1698 MEMB     13       POPS     O13      O2L     -0.780000       15.9994           0
      1699 MEMB     13       POPS     O14      O2L     -0.780000       15.9994           0
      1700 MEMB     13       POPS     O12      OSLP    -0.570000       15.9994           0
      1701 MEMB     13       POPS     O11      OSLP    -0.570000       15.9994           0
      1702 MEMB     13       POPS     C1       CTL2    -0.800000E-01   12.0110           0
      1703 MEMB     13       POPS     HA       HAL2     0.900000E-01   1.00800           0
      1704 MEMB     13       POPS     HB       HAL2     0.900000E-01   1.00800           0
      1705 MEMB     13       POPS     C2       CTL1     0.170000       12.0110           0
      1706 MEMB     13       POPS     HS       HAL1     0.900000E-01   1.00800           0
      1707 MEMB     13       POPS     O21      OSL     -0.490000       15.9994           0
      1708 MEMB     13       POPS     C21      CL       0.900000       12.0110           0
      1709 MEMB     13       POPS     O22      OBL     -0.630000       15.9994           0
      1710 MEMB     13       POPS     C22      CTL2    -0.220000       12.0110           0
      1711 MEMB     13       POPS     H2R      HAL2     0.900000E-01   1.00800           0
      1712 MEMB     13       POPS     H2S      HAL2     0.900000E-01   1.00800           0
      1713 MEMB     13       POPS     C3       CTL2     0.800000E-01   12.0110           0
      1714 MEMB     13       POPS     HX       HAL2     0.900000E-01   1.00800           0
      1715 MEMB     13       POPS     HY       HAL2     0.900000E-01   1.00800           0
      1716 MEMB     13       POPS     O31      OSL     -0.490000       15.9994           0
      1717 MEMB     13       POPS     C31      CL       0.900000       12.0110           0
      1718 MEMB     13       POPS     O32      OBL     -0.630000       15.9994           0
      1719 MEMB     13       POPS     C32      CTL2    -0.220000       12.0110           0
      1720 MEMB     13       POPS     H2X      HAL2     0.900000E-01   1.00800           0
      1721 MEMB     13       POPS     H2Y      HAL2     0.900000E-01   1.00800           0
      1722 MEMB     13       POPS     C23      CTL2    -0.180000       12.0110           0
      1723 MEMB     13       POPS     H3R      HAL2     0.900000E-01   1.00800           0
      1724 MEMB     13       POPS     H3S      HAL2     0.900000E-01   1.00800           0
      1725 MEMB     13       POPS     C24      CTL2    -0.180000       12.0110           0
      1726 MEMB     13       POPS     H4R      HAL2     0.900000E-01   1.00800           0
      1727 MEMB     13       POPS     H4S      HAL2     0.900000E-01   1.00800           0
      1728 MEMB     13       POPS     C25      CTL2    -0.180000       12.0110           0
      1729 MEMB     13       POPS     H5R      HAL2     0.900000E-01   1.00800           0
      1730 MEMB     13       POPS     H5S      HAL2     0.900000E-01   1.00800           0
      1731 MEMB     13       POPS     C26      CTL2    -0.180000       12.0110           0
      1732 MEMB     13       POPS     H6R      HAL2     0.900000E-01   1.00800           0
      1733 MEMB     13       POPS     H6S      HAL2     0.900000E-01   1.00800           0
      1734 MEMB     13       POPS     C27      CTL2    -0.180000       12.0110           0
      1735 MEMB     13       POPS     H7R      HAL2     0.900000E-01   1.00800           0
      1736 MEMB     13       POPS     H7S      HAL2     0.900000E-01   1.00800           0
      1737 MEMB     13       POPS     C28      CTL2    -0.180000       12.0110           0
      1738 MEMB     13       POPS     H8R      HAL2     0.900000E-01   1.00800           0
      1739 MEMB     13       POPS     H8S      HAL2     0.900000E-01   1.00800           0
      1740 MEMB     13       POPS     C29      CEL1    -0.150000       12.0110           0
      1741 MEMB     13       POPS     H91      HEL1     0.150000       1.00800           0
      1742 MEMB     13       POPS     C210     CEL1    -0.150000       12.0110           0
      1743 MEMB     13       POPS     H101     HEL1     0.150000       1.00800           0
      1744 MEMB     13       POPS     C211     CTL2    -0.180000       12.0110           0
      1745 MEMB     13       POPS     H11R     HAL2     0.900000E-01   1.00800           0
      1746 MEMB     13       POPS     H11S     HAL2     0.900000E-01   1.00800           0
      1747 MEMB     13       POPS     C212     CTL2    -0.180000       12.0110           0
      1748 MEMB     13       POPS     H12R     HAL2     0.900000E-01   1.00800           0
      1749 MEMB     13       POPS     H12S     HAL2     0.900000E-01   1.00800           0
      1750 MEMB     13       POPS     C213     CTL2    -0.180000       12.0110           0
      1751 MEMB     13       POPS     H13R     HAL2     0.900000E-01   1.00800           0
      1752 MEMB     13       POPS     H13S     HAL2     0.900000E-01   1.00800           0
      1753 MEMB     13       POPS     C214     CTL2    -0.180000       12.0110           0
      1754 MEMB     13       POPS     H14R     HAL2     0.900000E-01   1.00800           0
      1755 MEMB     13       POPS     H14S     HAL2     0.900000E-01   1.00800           0
      1756 MEMB     13       POPS     C215     CTL2    -0.180000       12.0110           0
      1757 MEMB     13       POPS     H15R     HAL2     0.900000E-01   1.00800           0
      1758 MEMB     13       POPS     H15S     HAL2     0.900000E-01   1.00800           0
      1759 MEMB     13       POPS     C216     CTL2    -0.180000       12.0110           0
      1760 MEMB     13       POPS     H16R     HAL2     0.900000E-01   1.00800           0
      1761 MEMB     13       POPS     H16S     HAL2     0.900000E-01   1.00800           0
      1762 MEMB     13       POPS     C217     CTL2    -0.180000       12.0110           0
      1763 MEMB     13       POPS     H17R     HAL2     0.900000E-01   1.00800           0
      1764 MEMB     13       POPS     H17S     HAL2     0.900000E-01   1.00800           0
      1765 MEMB     13       POPS     C218     CTL3    -0.270000       12.0110           0
      1766 MEMB     13       POPS     H18R     HAL3     0.900000E-01   1.00800           0
      1767 MEMB     13       POPS     H18S     HAL3     0.900000E-01   1.00800           0
      1768 MEMB     13       POPS     H18T     HAL3     0.900000E-01   1.00800           0
      1769 MEMB     13       POPS     C33      CTL2    -0.180000       12.0110           0
      1770 MEMB     13       POPS     H3X      HAL2     0.900000E-01   1.00800           0
      1771 MEMB     13       POPS     H3Y      HAL2     0.900000E-01   1.00800           0
      1772 MEMB     13       POPS     C34      CTL2    -0.180000       12.0110           0
      1773 MEMB     13       POPS     H4X      HAL2     0.900000E-01   1.00800           0
      1774 MEMB     13       POPS     H4Y      HAL2     0.900000E-01   1.00800           0
      1775 MEMB     13       POPS     C35      CTL2    -0.180000       12.0110           0
      1776 MEMB     13       POPS     H5X      HAL2     0.900000E-01   1.00800           0
      1777 MEMB     13       POPS     H5Y      HAL2     0.900000E-01   1.00800           0
      1778 MEMB     13       POPS     C36      CTL2    -0.180000       12.0110           0
      1779 MEMB     13       POPS     H6X      HAL2     0.900000E-01   1.00800           0
      1780 MEMB     13       POPS     H6Y      HAL2     0.900000E-01   1.00800           0
      1781 MEMB     13       POPS     C37      CTL2    -0.180000       12.0110           0
      1782 MEMB     13       POPS     H7X      HAL2     0.900000E-01   1.00800           0
      1783 MEMB     13       POPS     H7Y      HAL2     0.900000E-01   1.00800           0
      1784 MEMB     13       POPS     C38      CTL2    -0.180000       12.0110           0
      1785 MEMB     13       POPS     H8X      HAL2     0.900000E-01   1.00800           0
      1786 MEMB     13       POPS     H8Y      HAL2     0.900000E-01   1.00800           0
      1787 MEMB     13       POPS     C39      CTL2    -0.180000       12.0110           0
      1788 MEMB     13       POPS     H9X      HAL2     0.900000E-01   1.00800           0
      1789 MEMB     13       POPS     H9Y      HAL2     0.900000E-01   1.00800           0
      1790 MEMB     13       POPS     C310     CTL2    -0.180000       12.0110           0
      1791 MEMB     13       POPS     H10X     HAL2     0.900000E-01   1.00800           0
      1792 MEMB     13       POPS     H10Y     HAL2     0.900000E-01   1.00800           0
      1793 MEMB     13       POPS     C311     CTL2    -0.180000       12.0110           0
      1794 MEMB     13       POPS     H11X     HAL2     0.900000E-01   1.00800           0
      1795 MEMB     13       POPS     H11Y     HAL2     0.900000E-01   1.00800           0
      1796 MEMB     13       POPS     C312     CTL2    -0.180000       12.0110           0
      1797 MEMB     13       POPS     H12X     HAL2     0.900000E-01   1.00800           0
      1798 MEMB     13       POPS     H12Y     HAL2     0.900000E-01   1.00800           0
      1799 MEMB     13       POPS     C313     CTL2    -0.180000       12.0110           0
      1800 MEMB     13       POPS     H13X     HAL2     0.900000E-01   1.00800           0
      1801 MEMB     13       POPS     H13Y     HAL2     0.900000E-01   1.00800           0
      1802 MEMB     13       POPS     C314     CTL2    -0.180000       12.0110           0
      1803 MEMB     13       POPS     H14X     HAL2     0.900000E-01   1.00800           0
      1804 MEMB     13       POPS     H14Y     HAL2     0.900000E-01   1.00800           0
      1805 MEMB     13       POPS     C315     CTL2    -0.180000       12.0110           0
      1806 MEMB     13       POPS     H15X     HAL2     0.900000E-01   1.00800           0
      1807 MEMB     13       POPS     H15Y     HAL2     0.900000E-01   1.00800           0
      1808 MEMB     13       POPS     C316     CTL3    -0.270000       12.0110           0
      1809 MEMB     13       POPS     H16X     HAL3     0.900000E-01   1.00800           0
      1810 MEMB     13       POPS     H16Y     HAL3     0.900000E-01   1.00800           0
      1811 MEMB     13       POPS     H16Z     HAL3     0.900000E-01   1.00800           0
      1812 MEMB     14       POPC     N        NTL     -0.600000       14.0070           0
      1813 MEMB     14       POPC     C12      CTL2    -0.100000       12.0110           0
      1814 MEMB     14       POPC     H12A     HL       0.250000       1.00800           0
      1815 MEMB     14       POPC     H12B     HL       0.250000       1.00800           0
      1816 MEMB     14       POPC     C13      CTL5    -0.350000       12.0110           0
      1817 MEMB     14       POPC     H13A     HL       0.250000       1.00800           0
      1818 MEMB     14       POPC     H13B     HL       0.250000       1.00800           0
      1819 MEMB     14       POPC     H13C     HL       0.250000       1.00800           0
      1820 MEMB     14       POPC     C14      CTL5    -0.350000       12.0110           0
      1821 MEMB     14       POPC     H14A     HL       0.250000       1.00800           0
      1822 MEMB     14       POPC     H14B     HL       0.250000       1.00800           0
      1823 MEMB     14       POPC     H14C     HL       0.250000       1.00800           0
      1824 MEMB     14       POPC     C15      CTL5    -0.350000       12.0110           0
      1825 MEMB     14       POPC     H15A     HL       0.250000       1.00800           0
      1826 MEMB     14       POPC     H15B     HL       0.250000       1.00800           0
      1827 MEMB     14       POPC     H15C     HL       0.250000       1.00800           0
      1828 MEMB     14       POPC     C11      CTL2    -0.800000E-01   12.0110           0
      1829 MEMB     14       POPC     H11A     HAL2     0.900000E-01   1.00800           0
      1830 MEMB     14       POPC     H11B     HAL2     0.900000E-01   1.00800           0
      1831 MEMB     14       POPC     P        PL        1.50000       30.9740           0
      1832 MEMB     14       POPC     O13      O2L     -0.780000       15.9994           0
      1833 MEMB     14       POPC     O14      O2L     -0.780000       15.9994           0
      1834 MEMB     14       POPC     O12      OSLP    -0.570000       15.9994           0
      1835 MEMB     14       POPC     O11      OSLP    -0.570000       15.9994           0
      1836 MEMB     14       POPC     C1       CTL2    -0.800000E-01   12.0110           0
      1837 MEMB     14       POPC     HA       HAL2     0.900000E-01   1.00800           0
      1838 MEMB     14       POPC     HB       HAL2     0.900000E-01   1.00800           0
      1839 MEMB     14       POPC     C2       CTL1     0.170000       12.0110           0
      1840 MEMB     14       POPC     HS       HAL1     0.900000E-01   1.00800           0
      1841 MEMB     14       POPC     O21      OSL     -0.490000       15.9994           0
      1842 MEMB     14       POPC     C21      CL       0.900000       12.0110           0
      1843 MEMB     14       POPC     O22      OBL     -0.630000       15.9994           0
      1844 MEMB     14       POPC     C22      CTL2    -0.220000       12.0110           0
      1845 MEMB     14       POPC     H2R      HAL2     0.900000E-01   1.00800           0
      1846 MEMB     14       POPC     H2S      HAL2     0.900000E-01   1.00800           0
      1847 MEMB     14       POPC     C3       CTL2     0.800000E-01   12.0110           0
      1848 MEMB     14       POPC     HX       HAL2     0.900000E-01   1.00800           0
      1849 MEMB     14       POPC     HY       HAL2     0.900000E-01   1.00800           0
      1850 MEMB     14       POPC     O31      OSL     -0.490000       15.9994           0
      1851 MEMB     14       POPC     C31      CL       0.900000       12.0110           0
      1852 MEMB     14       POPC     O32      OBL     -0.630000       15.9994           0
      1853 MEMB     14       POPC     C32      CTL2    -0.220000       12.0110           0
      1854 MEMB     14       POPC     H2X      HAL2     0.900000E-01   1.00800           0
      1855 MEMB     14       POPC     H2Y      HAL2     0.900000E-01   1.00800           0
      1856 MEMB     14       POPC     C23      CTL2    -0.180000       12.0110           0
      1857 MEMB     14       POPC     H3R      HAL2     0.900000E-01   1.00800           0
      1858 MEMB     14       POPC     H3S      HAL2     0.900000E-01   1.00800           0
      1859 MEMB     14       POPC     C24      CTL2    -0.180000       12.0110           0
      1860 MEMB     14       POPC     H4R      HAL2     0.900000E-01   1.00800           0
      1861 MEMB     14       POPC     H4S      HAL2     0.900000E-01   1.00800           0
      1862 MEMB     14       POPC     C25      CTL2    -0.180000       12.0110           0
      1863 MEMB     14       POPC     H5R      HAL2     0.900000E-01   1.00800           0
      1864 MEMB     14       POPC     H5S      HAL2     0.900000E-01   1.00800           0
      1865 MEMB     14       POPC     C26      CTL2    -0.180000       12.0110           0
      1866 MEMB     14       POPC     H6R      HAL2     0.900000E-01   1.00800           0
      1867 MEMB     14       POPC     H6S      HAL2     0.900000E-01   1.00800           0
      1868 MEMB     14       POPC     C27      CTL2    -0.180000       12.0110           0
      1869 MEMB     14       POPC     H7R      HAL2     0.900000E-01   1.00800           0
      1870 MEMB     14       POPC     H7S      HAL2     0.900000E-01   1.00800           0
      1871 MEMB     14       POPC     C28      CTL2    -0.180000       12.0110           0
      1872 MEMB     14       POPC     H8R      HAL2     0.900000E-01   1.00800           0
      1873 MEMB     14       POPC     H8S      HAL2     0.900000E-01   1.00800           0
      1874 MEMB     14       POPC     C29      CEL1    -0.150000       12.0110           0
      1875 MEMB     14       POPC     H91      HEL1     0.150000       1.00800           0
      1876 MEMB     14       POPC     C210     CEL1    -0.150000       12.0110           0
      1877 MEMB     14       POPC     H101     HEL1     0.150000       1.00800           0
      1878 MEMB     14       POPC     C211     CTL2    -0.180000       12.0110           0
      1879 MEMB     14       POPC     H11R     HAL2     0.900000E-01   1.00800           0
      1880 MEMB     14       POPC     H11S     HAL2     0.900000E-01   1.00800           0
      1881 MEMB     14       POPC     C212     CTL2    -0.180000       12.0110           0
      1882 MEMB     14       POPC     H12R     HAL2     0.900000E-01   1.00800           0
      1883 MEMB     14       POPC     H12S     HAL2     0.900000E-01   1.00800           0
      1884 MEMB     14       POPC     C213     CTL2    -0.180000       12.0110           0
      1885 MEMB     14       POPC     H13R     HAL2     0.900000E-01   1.00800           0
      1886 MEMB     14       POPC     H13S     HAL2     0.900000E-01   1.00800           0
      1887 MEMB     14       POPC     C214     CTL2    -0.180000       12.0110           0
      1888 MEMB     14       POPC     H14R     HAL2     0.900000E-01   1.00800           0
      1889 MEMB     14       POPC     H14S     HAL2     0.900000E-01   1.00800           0
      1890 MEMB     14       POPC     C215     CTL2    -0.180000       12.0110           0
      1891 MEMB     14       POPC     H15R     HAL2     0.900000E-01   1.00800           0
      1892 MEMB     14       POPC     H15S     HAL2     0.900000E-01   1.00800           0
      1893 MEMB     14       POPC     C216     CTL2    -0.180000       12.0110           0
      1894 MEMB     14       POPC     H16R     HAL2     0.900000E-01   1.00800           0
      1895 MEMB     14       POPC     H16S     HAL2     0.900000E-01   1.00800           0
      1896 MEMB     14       POPC     C217     CTL2    -0.180000       12.0110           0
      1897 MEMB     14       POPC     H17R     HAL2     0.900000E-01   1.00800           0
      1898 MEMB     14       POPC     H17S     HAL2     0.900000E-01   1.00800           0
      1899 MEMB     14       POPC     C218     CTL3    -0.270000       12.0110           0
      1900 MEMB     14       POPC     H18R     HAL3     0.900000E-01   1.00800           0
      1901 MEMB     14       POPC     H18S     HAL3     0.900000E-01   1.00800           0
      1902 MEMB     14       POPC     H18T     HAL3     0.900000E-01   1.00800           0
      1903 MEMB     14       POPC     C33      CTL2    -0.180000       12.0110           0
      1904 MEMB     14       POPC     H3X      HAL2     0.900000E-01   1.00800           0
      1905 MEMB     14       POPC     H3Y      HAL2     0.900000E-01   1.00800           0
      1906 MEMB     14       POPC     C34      CTL2    -0.180000       12.0110           0
      1907 MEMB     14       POPC     H4X      HAL2     0.900000E-01   1.00800           0
      1908 MEMB     14       POPC     H4Y      HAL2     0.900000E-01   1.00800           0
      1909 MEMB     14       POPC     C35      CTL2    -0.180000       12.0110           0
      1910 MEMB     14       POPC     H5X      HAL2     0.900000E-01   1.00800           0
      1911 MEMB     14       POPC     H5Y      HAL2     0.900000E-01   1.00800           0
      1912 MEMB     14       POPC     C36      CTL2    -0.180000       12.0110           0
      1913 MEMB     14       POPC     H6X      HAL2     0.900000E-01   1.00800           0
      1914 MEMB     14       POPC     H6Y      HAL2     0.900000E-01   1.00800           0
      1915 MEMB     14       POPC     C37      CTL2    -0.180000       12.0110           0
      1916 MEMB     14       POPC     H7X      HAL2     0.900000E-01   1.00800           0
      1917 MEMB     14       POPC     H7Y      HAL2     0.900000E-01   1.00800           0
      1918 MEMB     14       POPC     C38      CTL2    -0.180000       12.0110           0
      1919 MEMB     14       POPC     H8X      HAL2     0.900000E-01   1.00800           0
      1920 MEMB     14       POPC     H8Y      HAL2     0.900000E-01   1.00800           0
      1921 MEMB     14       POPC     C39      CTL2    -0.180000       12.0110           0
      1922 MEMB     14       POPC     H9X      HAL2     0.900000E-01   1.00800           0
      1923 MEMB     14       POPC     H9Y      HAL2     0.900000E-01   1.00800           0
      1924 MEMB     14       POPC     C310     CTL2    -0.180000       12.0110           0
      1925 MEMB     14       POPC     H10X     HAL2     0.900000E-01   1.00800           0
      1926 MEMB     14       POPC     H10Y     HAL2     0.900000E-01   1.00800           0
      1927 MEMB     14       POPC     C311     CTL2    -0.180000       12.0110           0
      1928 MEMB     14       POPC     H11X     HAL2     0.900000E-01   1.00800           0
      1929 MEMB     14       POPC     H11Y     HAL2     0.900000E-01   1.00800           0
      1930 MEMB     14       POPC     C312     CTL2    -0.180000       12.0110           0
      1931 MEMB     14       POPC     H12X     HAL2     0.900000E-01   1.00800           0
      1932 MEMB     14       POPC     H12Y     HAL2     0.900000E-01   1.00800           0
      1933 MEMB     14       POPC     C313     CTL2    -0.180000       12.0110           0
      1934 MEMB     14       POPC     H13X     HAL2     0.900000E-01   1.00800           0
      1935 MEMB     14       POPC     H13Y     HAL2     0.900000E-01   1.00800           0
      1936 MEMB     14       POPC     C314     CTL2    -0.180000       12.0110           0
      1937 MEMB     14       POPC     H14X     HAL2     0.900000E-01   1.00800           0
      1938 MEMB     14       POPC     H14Y     HAL2     0.900000E-01   1.00800           0
      1939 MEMB     14       POPC     C315     CTL2    -0.180000       12.0110           0
      1940 MEMB     14       POPC     H15X     HAL2     0.900000E-01   1.00800           0
      1941 MEMB     14       POPC     H15Y     HAL2     0.900000E-01   1.00800           0
      1942 MEMB     14       POPC     C316     CTL3    -0.270000       12.0110           0
      1943 MEMB     14       POPC     H16X     HAL3     0.900000E-01   1.00800           0
      1944 MEMB     14       POPC     H16Y     HAL3     0.900000E-01   1.00800           0
      1945 MEMB     14       POPC     H16Z     HAL3     0.900000E-01   1.00800           0
      1946 MEMB     15       POPC     N        NTL     -0.600000       14.0070           0
      1947 MEMB     15       POPC     C12      CTL2    -0.100000       12.0110           0
      1948 MEMB     15       POPC     H12A     HL       0.250000       1.00800           0
      1949 MEMB     15       POPC     H12B     HL       0.250000       1.00800           0
      1950 MEMB     15       POPC     C13      CTL5    -0.350000       12.0110           0
      1951 MEMB     15       POPC     H13A     HL       0.250000       1.00800           0
      1952 MEMB     15       POPC     H13B     HL       0.250000       1.00800           0
      1953 MEMB     15       POPC     H13C     HL       0.250000       1.00800           0
      1954 MEMB     15       POPC     C14      CTL5    -0.350000       12.0110           0
      1955 MEMB     15       POPC     H14A     HL       0.250000       1.00800           0
      1956 MEMB     15       POPC     H14B     HL       0.250000       1.00800           0
      1957 MEMB     15       POPC     H14C     HL       0.250000       1.00800           0
      1958 MEMB     15       POPC     C15      CTL5    -0.350000       12.0110           0
      1959 MEMB     15       POPC     H15A     HL       0.250000       1.00800           0
      1960 MEMB     15       POPC     H15B     HL       0.250000       1.00800           0
      1961 MEMB     15       POPC     H15C     HL       0.250000       1.00800           0
      1962 MEMB     15       POPC     C11      CTL2    -0.800000E-01   12.0110           0
      1963 MEMB     15       POPC     H11A     HAL2     0.900000E-01   1.00800           0
      1964 MEMB     15       POPC     H11B     HAL2     0.900000E-01   1.00800           0
      1965 MEMB     15       POPC     P        PL        1.50000       30.9740           0
      1966 MEMB     15       POPC     O13      O2L     -0.780000       15.9994           0
      1967 MEMB     15       POPC     O14      O2L     -0.780000       15.9994           0
      1968 MEMB     15       POPC     O12      OSLP    -0.570000       15.9994           0
      1969 MEMB     15       POPC     O11      OSLP    -0.570000       15.9994           0
      1970 MEMB     15       POPC     C1       CTL2    -0.800000E-01   12.0110           0
      1971 MEMB     15       POPC     HA       HAL2     0.900000E-01   1.00800           0
      1972 MEMB     15       POPC     HB       HAL2     0.900000E-01   1.00800           0
      1973 MEMB     15       POPC     C2       CTL1     0.170000       12.0110           0
      1974 MEMB     15       POPC     HS       HAL1     0.900000E-01   1.00800           0
      1975 MEMB     15       POPC     O21      OSL     -0.490000       15.9994           0
      1976 MEMB     15       POPC     C21      CL       0.900000       12.0110           0
      1977 MEMB     15       POPC     O22      OBL     -0.630000       15.9994           0
      1978 MEMB     15       POPC     C22      CTL2    -0.220000       12.0110           0
      1979 MEMB     15       POPC     H2R      HAL2     0.900000E-01   1.00800           0
      1980 MEMB     15       POPC     H2S      HAL2     0.900000E-01   1.00800           0
      1981 MEMB     15       POPC     C3       CTL2     0.800000E-01   12.0110           0
      1982 MEMB     15       POPC     HX       HAL2     0.900000E-01   1.00800           0
      1983 MEMB     15       POPC     HY       HAL2     0.900000E-01   1.00800           0
      1984 MEMB     15       POPC     O31      OSL     -0.490000       15.9994           0
      1985 MEMB     15       POPC     C31      CL       0.900000       12.0110           0
      1986 MEMB     15       POPC     O32      OBL     -0.630000       15.9994           0
      1987 MEMB     15       POPC     C32      CTL2    -0.220000       12.0110           0
      1988 MEMB     15       POPC     H2X      HAL2     0.900000E-01   1.00800           0
      1989 MEMB     15       POPC     H2Y      HAL2     0.900000E-01   1.00800           0
      1990 MEMB     15       POPC     C23      CTL2    -0.180000       12.0110           0
      1991 MEMB     15       POPC     H3R      HAL2     0.900000E-01   1.00800           0
      1992 MEMB     15       POPC     H3S      HAL2     0.900000E-01   1.00800           0
      1993 MEMB     15       POPC     C24      CTL2    -0.180000       12.0110           0
      1994 MEMB     15       POPC     H4R      HAL2     0.900000E-01   1.00800           0
      1995 MEMB     15       POPC     H4S      HAL2     0.900000E-01   1.00800           0
      1996 MEMB     15       POPC     C25      CTL2    -0.180000       12.0110           0
      1997 MEMB     15       POPC     H5R      HAL2     0.900000E-01   1.00800           0
      1998 MEMB     15       POPC     H5S      HAL2     0.900000E-01   1.00800           0
      1999 MEMB     15       POPC     C26      CTL2    -0.180000       12.0110           0
      2000 MEMB     15       POPC     H6R      HAL2     0.900000E-01   1.00800           0
      2001 MEMB     15       POPC     H6S      HAL2     0.900000E-01   1.00800           0
      2002 MEMB     15       POPC     C27      CTL2    -0.180000       12.0110           0
      2003 MEMB     15       POPC     H7R      HAL2     0.900000E-01   1.00800           0
      2004 MEMB     15       POPC     H7S      HAL2     0.900000E-01   1.00800           0
      2005 MEMB     15       POPC     C28      CTL2    -0.180000       12.0110           0
      2006 MEMB     15       POPC     H8R      HAL2     0.900000E-01   1.00800           0
      2007 MEMB     15       POPC     H8S      HAL2     0.900000E-01   1.00800           0
      2008 MEMB     15       POPC     C29      CEL1    -0.150000       12.0110           0
      2009 MEMB     15       POPC     H91      HEL1     0.150000       1.00800           0
      2010 MEMB     15       POPC     C210     CEL1    -0.150000       12.0110           0
      2011 MEMB     15       POPC     H101     HEL1     0.150000       1.00800           0
      2012 MEMB     15       POPC     C211     CTL2    -0.180000       12.0110           0
      2013 MEMB     15       POPC     H11R     HAL2     0.900000E-01   1.00800           0
      2014 MEMB     15       POPC     H11S     HAL2     0.900000E-01   1.00800           0
      2015 MEMB     15       POPC     C212     CTL2    -0.180000       12.0110           0
      2016 MEMB     15       POPC     H12R     HAL2     0.900000E-01   1.00800           0
      2017 MEMB     15       POPC     H12S     HAL2     0.900000E-01   1.00800           0
      2018 MEMB     15       POPC     C213     CTL2    -0.180000       12.0110           0
      2019 MEMB     15       POPC     H13R     HAL2     0.900000E-01   1.00800           0
      2020 MEMB     15       POPC     H13S     HAL2     0.900000E-01   1.00800           0
      2021 MEMB     15       POPC     C214     CTL2    -0.180000       12.0110           0
      2022 MEMB     15       POPC     H14R     HAL2     0.900000E-01   1.00800           0
      2023 MEMB     15       POPC     H14S     HAL2     0.900000E-01   1.00800           0
      2024 MEMB     15       POPC     C215     CTL2    -0.180000       12.0110           0
      2025 MEMB     15       POPC     H15R     HAL2     0.900000E-01   1.00800           0
      2026 MEMB     15       POPC     H15S     HAL2     0.900000E-01   1.00800           0
      2027 MEMB     15       POPC     C216     CTL2    -0.180000       12.0110           0
      2028 MEMB     15       POPC     H16R     HAL2     0.900000E-01   1.00800           0
      2029 MEMB     15       POPC     H16S     HAL2     0.900000E-01   1.00800           0
      2030 MEMB     15       POPC     C217     CTL2    -0.180000       12.0110           0
      2031 MEMB     15       POPC     H17R     HAL2     0.900000E-01   1.00800           0
      2032 MEMB     15       POPC     H17S     HAL2     0.900000E-01   1.00800           0
      2033 MEMB     15       POPC     C218     CTL3    -0.270000       12.0110           0
      2034 MEMB     15       POPC     H18R     HAL3     0.900000E-01   1.00800           0
      2035 MEMB     15       POPC     H18S     HAL3     0.900000E-01   1.00800           0
      2036 MEMB     15       POPC     H18T     HAL3     0.900000E-01   1.00800           0
      2037 MEMB     15       POPC     C33      CTL2    -0.180000       12.0110           0
      2038 MEMB     15       POPC     H3X      HAL2     0.900000E-01   1.00800           0
      2039 MEMB     15       POPC     H3Y      HAL2     0.900000E-01   1.00800           0
      2040 MEMB     15       POPC     C34      CTL2    -0.180000       12.0110           0
      2041 MEMB     15       POPC     H4X      HAL2     0.900000E-01   1.00800           0
      2042 MEMB     15       POPC     H4Y      HAL2     0.900000E-01   1.00800           0
      2043 MEMB     15       POPC     C35      CTL2    -0.180000       12.0110           0
      2044 MEMB     15       POPC     H5X      HAL2     0.900000E-01   1.00800           0
      2045 MEMB     15       POPC     H5Y      HAL2     0.900000E-01   1.00800           0
      2046 MEMB     15       POPC     C36      CTL2    -0.180000       12.0110           0
      2047 MEMB     15       POPC     H6X      HAL2     0.900000E-01   1.00800           0
      2048 MEMB     15       POPC     H6Y      HAL2     0.900000E-01   1.00800           0
      2049 MEMB     15       POPC     C37      CTL2    -0.180000       12.0110           0
      2050 MEMB     15       POPC     H7X      HAL2     0.900000E-01   1.00800           0
      2051 MEMB     15       POPC     H7Y      HAL2     0.900000E-01   1.00800           0
      2052 MEMB     15       POPC     C38      CTL2    -0.180000       12.0110           0
      2053 MEMB     15       POPC     H8X      HAL2     0.900000E-01   1.00800           0
      2054 MEMB     15       POPC     H8Y      HAL2     0.900000E-01   1.00800           0
      2055 MEMB     15       POPC     C39      CTL2    -0.180000       12.0110           0
      2056 MEMB     15       POPC     H9X      HAL2     0.900000E-01   1.00800           0
      2057 MEMB     15       POPC     H9Y      HAL2     0.900000E-01   1.00800           0
      2058 MEMB     15       POPC     C310     CTL2    -0.180000       12.0110           0
      2059 MEMB     15       POPC     H10X     HAL2     0.900000E-01   1.00800           0
      2060 MEMB     15       POPC     H10Y     HAL2     0.900000E-01   1.00800           0
      2061 MEMB     15       POPC     C311     CTL2    -0.180000       12.0110           0
      2062 MEMB     15       POPC     H11X     HAL2     0.900000E-01   1.00800           0
      2063 MEMB     15       POPC     H11Y     HAL2     0.900000E-01   1.00800           0
      2064 MEMB     15       POPC     C312     CTL2    -0.180000       12.0110           0
      2065 MEMB     15       POPC     H12X     HAL2     0.900000E-01   1.00800           0
      2066 MEMB     15       POPC     H12Y     HAL2     0.900000E-01   1.00800           0
      2067 MEMB     15       POPC     C313     CTL2    -0.180000       12.0110           0
      2068 MEMB     15       POPC     H13X     HAL2     0.900000E-01   1.00800           0
      2069 MEMB     15       POPC     H13Y     HAL2     0.900000E-01   1.00800           0
      2070 MEMB     15       POPC     C314     CTL2    -0.180000       12.0110           0
      2071 MEMB     15       POPC     H14X     HAL2     0.900000E-01   1.00800           0
      2072 MEMB     15       POPC     H14Y     HAL2     0.900000E-01   1.00800           0
      2073 MEMB     15       POPC     C315     CTL2    -0.180000       12.0110           0
      2074 MEMB     15       POPC     H15X     HAL2     0.900000E-01   1.00800           0
      2075 MEMB     15       POPC     H15Y     HAL2     0.900000E-01   1.00800           0
      2076 MEMB     15       POPC     C316     CTL3    -0.270000       12.0110           0
      2077 MEMB     15       POPC     H16X     HAL3     0.900000E-01   1.00800           0
      2078 MEMB     15       POPC     H16Y     HAL3     0.900000E-01   1.00800           0
      2079 MEMB     15       POPC     H16Z     HAL3     0.900000E-01   1.00800           0
      2080 MEMB     16       POPC     N        NTL     -0.600000       14.0070           0
      2081 MEMB     16       POPC     C12      CTL2    -0.100000       12.0110           0
      2082 MEMB     16       POPC     H12A     HL       0.250000       1.00800           0
      2083 MEMB     16       POPC     H12B     HL       0.250000       1.00800           0
      2084 MEMB     16       POPC     C13      CTL5    -0.350000       12.0110           0
      2085 MEMB     16       POPC     H13A     HL       0.250000       1.00800           0
      2086 MEMB     16       POPC     H13B     HL       0.250000       1.00800           0
      2087 MEMB     16       POPC     H13C     HL       0.250000       1.00800           0
      2088 MEMB     16       POPC     C14      CTL5    -0.350000       12.0110           0
      2089 MEMB     16       POPC     H14A     HL       0.250000       1.00800           0
      2090 MEMB     16       POPC     H14B     HL       0.250000       1.00800           0
      2091 MEMB     16       POPC     H14C     HL       0.250000       1.00800           0
      2092 MEMB     16       POPC     C15      CTL5    -0.350000       12.0110           0
      2093 MEMB     16       POPC     H15A     HL       0.250000       1.00800           0
      2094 MEMB     16       POPC     H15B     HL       0.250000       1.00800           0
      2095 MEMB     16       POPC     H15C     HL       0.250000       1.00800           0
      2096 MEMB     16       POPC     C11      CTL2    -0.800000E-01   12.0110           0
      2097 MEMB     16       POPC     H11A     HAL2     0.900000E-01   1.00800           0
      2098 MEMB     16       POPC     H11B     HAL2     0.900000E-01   1.00800           0
      2099 MEMB     16       POPC     P        PL        1.50000       30.9740           0
      2100 MEMB     16       POPC     O13      O2L     -0.780000       15.9994           0
      2101 MEMB     16       POPC     O14      O2L     -0.780000       15.9994           0
      2102 MEMB     16       POPC     O12      OSLP    -0.570000       15.9994           0
      2103 MEMB     16       POPC     O11      OSLP    -0.570000       15.9994           0
      2104 MEMB     16       POPC     C1       CTL2    -0.800000E-01   12.0110           0
      2105 MEMB     16       POPC     HA       HAL2     0.900000E-01   1.00800           0
      2106 MEMB     16       POPC     HB       HAL2     0.900000E-01   1.00800           0
      2107 MEMB     16       POPC     C2       CTL1     0.170000       12.0110           0
      2108 MEMB     16       POPC     HS       HAL1     0.900000E-01   1.00800           0
      2109 MEMB     16       POPC     O21      OSL     -0.490000       15.9994           0
      2110 MEMB     16       POPC     C21      CL       0.900000       12.0110           0
      2111 MEMB     16       POPC     O22      OBL     -0.630000       15.9994           0
      2112 MEMB     16       POPC     C22      CTL2    -0.220000       12.0110           0
      2113 MEMB     16       POPC     H2R      HAL2     0.900000E-01   1.00800           0
      2114 MEMB     16       POPC     H2S      HAL2     0.900000E-01   1.00800           0
      2115 MEMB     16       POPC     C3       CTL2     0.800000E-01   12.0110           0
      2116 MEMB     16       POPC     HX       HAL2     0.900000E-01   1.00800           0
      2117 MEMB     16       POPC     HY       HAL2     0.900000E-01   1.00800           0
      2118 MEMB     16       POPC     O31      OSL     -0.490000       15.9994           0
      2119 MEMB     16       POPC     C31      CL       0.900000       12.0110           0
      2120 MEMB     16       POPC     O32      OBL     -0.630000       15.9994           0
      2121 MEMB     16       POPC     C32      CTL2    -0.220000       12.0110           0
      2122 MEMB     16       POPC     H2X      HAL2     0.900000E-01   1.00800           0
      2123 MEMB     16       POPC     H2Y      HAL2     0.900000E-01   1.00800           0
      2124 MEMB     16       POPC     C23      CTL2    -0.180000       12.0110           0
      2125 MEMB     16       POPC     H3R      HAL2     0.900000E-01   1.00800           0
      2126 MEMB     16       POPC     H3S      HAL2     0.900000E-01   1.00800           0
      2127 MEMB     16       POPC     C24      CTL2    -0.180000       12.0110           0
      2128 MEMB     16       POPC     H4R      HAL2     0.900000E-01   1.00800           0
      2129 MEMB     16       POPC     H4S      HAL2     0.900000E-01   1.00800           0
      2130 MEMB     16       POPC     C25      CTL2    -0.180000       12.0110           0
      2131 MEMB     16       POPC     H5R      HAL2     0.900000E-01   1.00800           0
      2132 MEMB     16       POPC     H5S      HAL2     0.900000E-01   1.00800           0
      2133 MEMB     16       POPC     C26      CTL2    -0.180000       12.0110           0
      2134 MEMB     16       POPC     H6R      HAL2     0.900000E-01   1.00800           0
      2135 MEMB     16       POPC     H6S      HAL2     0.900000E-01   1.00800           0
      2136 MEMB     16       POPC     C27      CTL2    -0.180000       12.0110           0
      2137 MEMB     16       POPC     H7R      HAL2     0.900000E-01   1.00800           0
      2138 MEMB     16       POPC     H7S      HAL2     0.900000E-01   1.00800           0
      2139 MEMB     16       POPC     C28      CTL2    -0.180000       12.0110           0
      2140 MEMB     16       POPC     H8R      HAL2     0.900000E-01   1.00800           0
      2141 MEMB     16       POPC     H8S      HAL2     0.900000E-01   1.00800           0
      2142 MEMB     16       POPC     C29      CEL1    -0.150000       12.0110           0
      2143 MEMB     16       POPC     H91      HEL1     0.150000       1.00800           0
      2144 MEMB     16       POPC     C210     CEL1    -0.150000       12.0110           0
      2145 MEMB     16       POPC     H101     HEL1     0.150000       1.00800           0
      2146 MEMB     16       POPC     C211     CTL2    -0.180000       12.0110           0
      2147 MEMB     16       POPC     H11R     HAL2     0.900000E-01   1.00800           0
      2148 MEMB     16       POPC     H11S     HAL2     0.900000E-01   1.00800           0
      2149 MEMB     16       POPC     C212     CTL2    -0.180000       12.0110           0
      2150 MEMB     16       POPC     H12R     HAL2     0.900000E-01   1.00800           0
      2151 MEMB     16       POPC     H12S     HAL2     0.900000E-01   1.00800           0
      2152 MEMB     16       POPC     C213     CTL2    -0.180000       12.0110           0
      2153 MEMB     16       POPC     H13R     HAL2     0.900000E-01   1.00800           0
      2154 MEMB     16       POPC     H13S     HAL2     0.900000E-01   1.00800           0
      2155 MEMB     16       POPC     C214     CTL2    -0.180000       12.0110           0
      2156 MEMB     16       POPC     H14R     HAL2     0.900000E-01   1.00800           0
      2157 MEMB     16       POPC     H14S     HAL2     0.900000E-01   1.00800           0
      2158 MEMB     16       POPC     C215     CTL2    -0.180000       12.0110           0
      2159 MEMB     16       POPC     H15R     HAL2     0.900000E-01   1.00800           0
      2160 MEMB     16       POPC     H15S     HAL2     0.900000E-01   1.00800           0
      2161 MEMB     16       POPC     C216     CTL2    -0.180000       12.0110           0
      2162 MEMB     16       POPC     H16R     HAL2     0.900000E-01   1.00800           0
      2163 MEMB     16       POPC     H16S     HAL2     0.900000E-01   1.00800           0
      2164 MEMB     16       POPC     C217     CTL2    -0.180000       12.0110           0
      2165 MEMB     16       POPC     H17R     HAL2     0.900000E-01   1.00800           0
      2166 MEMB     16       POPC     H17S     HAL2     0.900000E-01   1.00800           0
      2167 MEMB     16       POPC     C218     CTL3    -0.270000       12.0110           0
      2168 MEMB     16       POPC     H18R     HAL3     0.900000E-01   1.00800           0
      2169 MEMB     16       POPC     H18S     HAL3     0.900000E-01   1.00800           0
      2170 MEMB     16       POPC     H18T     HAL3     0.900000E-01   1.00800           0
      2171 MEMB     16       POPC     C33      CTL2    -0.180000       12.0110           0
      2172 MEMB     16       POPC     H3X      HAL2     0.900000E-01   1.00800           0
      2173 MEMB     16       POPC     H3Y      HAL2     0.900000E-01   1.00800           0
      2174 MEMB     16       POPC     C34      CTL2    -0.180000       12.0110           0
      2175 MEMB     16       POPC     H4X      HAL2     0.900000E-01   1.00800           0
      2176 MEMB     16       POPC     H4Y      HAL2     0.900000E-01   1.00800           0
      2177 MEMB     16       POPC     C35      CTL2    -0.180000       12.0110           0
      2178 MEMB     16       POPC     H5X      HAL2     0.900000E-01   1.00800           0
      2179 MEMB     16       POPC     H5Y      HAL2     0.900000E-01   1.00800           0
      2180 MEMB     16       POPC     C36      CTL2    -0.180000       12.0110           0
      2181 MEMB     16       POPC     H6X      HAL2     0.900000E-01   1.00800           0
      2182 MEMB     16       POPC     H6Y      HAL2     0.900000E-01   1.00800           0
      2183 MEMB     16       POPC     C37      CTL2    -0.180000       12.0110           0
      2184 MEMB     16       POPC     H7X      HAL2     0.900000E-01   1.00800           0
      2185 MEMB     16       POPC     H7Y      HAL2     0.900000E-01   1.00800           0
      2186 MEMB     16       POPC     C38      CTL2    -0.180000       12.0110           0
      2187 MEMB     16       POPC     H8X      HAL2     0.900000E-01   1.00800           0
      2188 MEMB     16       POPC     H8Y      HAL2     0.900000E-01   1.00800           0
      2189 MEMB     16       POPC     C39      CTL2    -0.180000       12.0110           0
      2190 MEMB     16       POPC     H9X      HAL2     0.900000E-01   1.00800           0
      2191 MEMB     16       POPC     H9Y      HAL2     0.900000E-01   1.00800           0
      2192 MEMB     16       POPC     C310     CTL2    -0.180000       12.0110           0
      2193 MEMB     16       POPC     H10X     HAL2     0.900000E-01   1.00800           0
      2194 MEMB     16       POPC     H10Y     HAL2     0.900000E-01   1.00800           0
      2195 MEMB     16       POPC     C311     CTL2    -0.180000       12.0110           0
      2196 MEMB     16       POPC     H11X     HAL2     0.900000E-01   1.00800           0
      2197 MEMB     16       POPC     H11Y     HAL2     0.900000E-01   1.00800           0
      2198 MEMB     16       POPC     C312     CTL2    -0.180000       12.0110           0
      2199 MEMB     16       POPC     H12X     HAL2     0.900000E-01   1.00800           0
      2200 MEMB     16       POPC     H12Y     HAL2     0.900000E-01   1.00800           0
      2201 MEMB     16       POPC     C313     CTL2    -0.180000       12.0110           0
      2202 MEMB     16       POPC     H13X     HAL2     0.900000E-01   1.00800           0
      2203 MEMB     16       POPC     H13Y     HAL2     0.900000E-01   1.00800           0
      2204 MEMB     16       POPC     C314     CTL2    -0.180000       12.0110           0
      2205 MEMB     16       POPC     H14X     HAL2     0.900000E-01   1.00800           0
      2206 MEMB     16       POPC     H14Y     HAL2     0.900000E-01   1.00800           0
      2207 MEMB     16       POPC     C315     CTL2    -0.180000       12.0110           0
      2208 MEMB     16       POPC     H15X     HAL2     0.900000E-01   1.00800           0
      2209 MEMB     16       POPC     H15Y     HAL2     0.900000E-01   1.00800           0
      2210 MEMB     16       POPC     C316     CTL3    -0.270000       12.0110           0
      2211 MEMB     16       POPC     H16X     HAL3     0.900000E-01   1.00800           0
      2212 MEMB     16       POPC     H16Y     HAL3     0.900000E-01   1.00800           0
      2213 MEMB     16       POPC     H16Z     HAL3     0.900000E-01   1.00800           0
      2214 MEMB     17       POPC     N        NTL     -0.600000       14.0070           0
      2215 MEMB     17       POPC     C12      CTL2    -0.100000       12.0110           0
      2216 MEMB     17       POPC     H12A     HL       0.250000       1.00800           0
      2217 MEMB     17       POPC     H12B     HL       0.250000       1.00800           0
      2218 MEMB     17       POPC     C13      CTL5    -0.350000       12.0110           0
      2219 MEMB     17       POPC     H13A     HL       0.250000       1.00800           0
      2220 MEMB     17       POPC     H13B     HL       0.250000       1.00800           0
      2221 MEMB     17       POPC     H13C     HL       0.250000       1.00800           0
      2222 MEMB     17       POPC     C14      CTL5    -0.350000       12.0110           0
      2223 MEMB     17       POPC     H14A     HL       0.250000       1.00800           0
      2224 MEMB     17       POPC     H14B     HL       0.250000       1.00800           0
      2225 MEMB     17       POPC     H14C     HL       0.250000       1.00800           0
      2226 MEMB     17       POPC     C15      CTL5    -0.350000       12.0110           0
      2227 MEMB     17       POPC     H15A     HL       0.250000       1.00800           0
      2228 MEMB     17       POPC     H15B     HL       0.250000       1.00800           0
      2229 MEMB     17       POPC     H15C     HL       0.250000       1.00800           0
      2230 MEMB     17       POPC     C11      CTL2    -0.800000E-01   12.0110           0
      2231 MEMB     17       POPC     H11A     HAL2     0.900000E-01   1.00800           0
      2232 MEMB     17       POPC     H11B     HAL2     0.900000E-01   1.00800           0
      2233 MEMB     17       POPC     P        PL        1.50000       30.9740           0
      2234 MEMB     17       POPC     O13      O2L     -0.780000       15.9994           0
      2235 MEMB     17       POPC     O14      O2L     -0.780000       15.9994           0
      2236 MEMB     17       POPC     O12      OSLP    -0.570000       15.9994           0
      2237 MEMB     17       POPC     O11      OSLP    -0.570000       15.9994           0
      2238 MEMB     17       POPC     C1       CTL2    -0.800000E-01   12.0110           0
      2239 MEMB     17       POPC     HA       HAL2     0.900000E-01   1.00800           0
      2240 MEMB     17       POPC     HB       HAL2     0.900000E-01   1.00800           0
      2241 MEMB     17       POPC     C2       CTL1     0.170000       12.0110           0
      2242 MEMB     17       POPC     HS       HAL1     0.900000E-01   1.00800           0
      2243 MEMB     17       POPC     O21      OSL     -0.490000       15.9994           0
      2244 MEMB     17       POPC     C21      CL       0.900000       12.0110           0
      2245 MEMB     17       POPC     O22      OBL     -0.630000       15.9994           0
      2246 MEMB     17       POPC     C22      CTL2    -0.220000       12.0110           0
      2247 MEMB     17       POPC     H2R      HAL2     0.900000E-01   1.00800           0
      2248 MEMB     17       POPC     H2S      HAL2     0.900000E-01   1.00800           0
      2249 MEMB     17       POPC     C3       CTL2     0.800000E-01   12.0110           0
      2250 MEMB     17       POPC     HX       HAL2     0.900000E-01   1.00800           0
      2251 MEMB     17       POPC     HY       HAL2     0.900000E-01   1.00800           0
      2252 MEMB     17       POPC     O31      OSL     -0.490000       15.9994           0
      2253 MEMB     17       POPC     C31      CL       0.900000       12.0110           0
      2254 MEMB     17       POPC     O32      OBL     -0.630000       15.9994           0
      2255 MEMB     17       POPC     C32      CTL2    -0.220000       12.0110           0
      2256 MEMB     17       POPC     H2X      HAL2     0.900000E-01   1.00800           0
      2257 MEMB     17       POPC     H2Y      HAL2     0.900000E-01   1.00800           0
      2258 MEMB     17       POPC     C23      CTL2    -0.180000       12.0110           0
      2259 MEMB     17       POPC     H3R      HAL2     0.900000E-01   1.00800           0
      2260 MEMB     17       POPC     H3S      HAL2     0.900000E-01   1.00800           0
      2261 MEMB     17       POPC     C24      CTL2    -0.180000       12.0110           0
      2262 MEMB     17       POPC     H4R      HAL2     0.900000E-01   1.00800           0
      2263 MEMB     17       POPC     H4S      HAL2     0.900000E-01   1.00800           0
      2264 MEMB     17       POPC     C25      CTL2    -0.180000       12.0110           0
      2265 MEMB     17       POPC     H5R      HAL2     0.900000E-01   1.00800           0
      2266 MEMB     17       POPC     H5S      HAL2     0.900000E-01   1.00800           0
      2267 MEMB     17       POPC     C26      CTL2    -0.180000       12.0110           0
      2268 MEMB     17       POPC     H6R      HAL2     0.900000E-01   1.00800           0
      2269 MEMB     17       POPC     H6S      HAL2     0.900000E-01   1.00800           0
      2270 MEMB     17       POPC     C27      CTL2    -0.180000       12.0110           0
      2271 MEMB     17       POPC     H7R      HAL2     0.900000E-01   1.00800           0
      2272 MEMB     17       POPC     H7S      HAL2     0.900000E-01   1.00800           0
      2273 MEMB     17       POPC     C28      CTL2    -0.180000       12.0110           0
      2274 MEMB     17       POPC     H8R      HAL2     0.900000E-01   1.00800           0
      2275 MEMB     17       POPC     H8S      HAL2     0.900000E-01   1.00800           0
      2276 MEMB     17       POPC     C29      CEL1    -0.150000       12.0110           0
      2277 MEMB     17       POPC     H91      HEL1     0.150000       1.00800           0
      2278 MEMB     17       POPC     C210     CEL1    -0.150000       12.0110           0
      2279 MEMB     17       POPC     H101     HEL1     0.150000       1.00800           0
      2280 MEMB     17       POPC     C211     CTL2    -0.180000       12.0110           0
      2281 MEMB     17       POPC     H11R     HAL2     0.900000E-01   1.00800           0
      2282 MEMB     17       POPC     H11S     HAL2     0.900000E-01   1.00800           0
      2283 MEMB     17       POPC     C212     CTL2    -0.180000       12.0110           0
      2284 MEMB     17       POPC     H12R     HAL2     0.900000E-01   1.00800           0
      2285 MEMB     17       POPC     H12S     HAL2     0.900000E-01   1.00800           0
      2286 MEMB     17       POPC     C213     CTL2    -0.180000       12.0110           0
      2287 MEMB     17       POPC     H13R     HAL2     0.900000E-01   1.00800           0
      2288 MEMB     17       POPC     H13S     HAL2     0.900000E-01   1.00800           0
      2289 MEMB     17       POPC     C214     CTL2    -0.180000       12.0110           0
      2290 MEMB     17       POPC     H14R     HAL2     0.900000E-01   1.00800           0
      2291 MEMB     17       POPC     H14S     HAL2     0.900000E-01   1.00800           0
      2292 MEMB     17       POPC     C215     CTL2    -0.180000       12.0110           0
      2293 MEMB     17       POPC     H15R     HAL2     0.900000E-01   1.00800           0
      2294 MEMB     17       POPC     H15S     HAL2     0.900000E-01   1.00800           0
      2295 MEMB     17       POPC     C216     CTL2    -0.180000       12.0110           0
      2296 MEMB     17       POPC     H16R     HAL2     0.900000E-01   1.00800           0
      2297 MEMB     17       POPC     H16S     HAL2     0.900000E-01   1.00800           0
      2298 MEMB     17       POPC     C217     CTL2    -0.180000       12.0110           0
      2299 MEMB     17       POPC     H17R     HAL2     0.900000E-01   1.00800           0
      2300 MEMB     17       POPC     H17S     HAL2     0.900000E-01   1.00800           0
      2301 MEMB     17       POPC     C218     CTL3    -0.270000       12.0110           0
      2302 MEMB     17       POPC     H18R     HAL3     0.900000E-01   1.00800           0
      2303 MEMB     17       POPC     H18S     HAL3     0.900000E-01   1.00800           0
      2304 MEMB     17       POPC     H18T     HAL3     0.900000E-01   1.00800           0
      2305 MEMB     17       POPC     C33      CTL2    -0.180000       12.0110           0
      2306 MEMB     17       POPC     H3X      HAL2     0.900000E-01   1.00800           0
      2307 MEMB     17       POPC     H3Y      HAL2     0.900000E-01   1.00800           0
      2308 MEMB     17       POPC     C34      CTL2    -0.180000       12.0110           0
      2309 MEMB     17       POPC     H4X      HAL2     0.900000E-01   1.00800           0
      2310 MEMB     17       POPC     H4Y      HAL2     0.900000E-01   1.00800           0
      2311 MEMB     17       POPC     C35      CTL2    -0.180000       12.0110           0
      2312 MEMB     17       POPC     H5X      HAL2     0.900000E-01   1.00800           0
      2313 MEMB     17       POPC     H5Y      HAL2     0.900000E-01   1.00800           0
      2314 MEMB     17       POPC     C36      CTL2    -0.180000       12.0110           0
      2315 MEMB     17       POPC     H6X      HAL2     0.900000E-01   1.00800           0
      2316 MEMB     17       POPC     H6Y      HAL2     0.900000E-01   1.00800           0
      2317 MEMB     17       POPC     C37      CTL2    -0.180000       12.0110           0
      2318 MEMB     17       POPC     H7X      HAL2     0.900000E-01   1.00800           0
      2319 MEMB     17       POPC     H7Y      HAL2     0.900000E-01   1.00800           0
      2320 MEMB     17       POPC     C38      CTL2    -0.180000       12.0110           0
      2321 MEMB     17       POPC     H8X      HAL2     0.900000E-01   1.00800           0
      2322 MEMB     17       POPC     H8Y      HAL2     0.900000E-01   1.00800           0
      2323 MEMB     17       POPC     C39      CTL2    -0.180000       12.0110           0
      2324 MEMB     17       POPC     H9X      HAL2     0.900000E-01   1.00800           0
      2325 MEMB     17       POPC     H9Y      HAL2     0.900000E-01   1.00800           0
      2326 MEMB     17       POPC     C310     CTL2    -0.180000       12.0110           0
      2327 MEMB     17       POPC     H10X     HAL2     0.900000E-01   1.00800           0
      2328 MEMB     17       POPC     H10Y     HAL2     0.900000E-01   1.00800           0
      2329 MEMB     17       POPC     C311     CTL2    -0.180000       12.0110           0
      2330 MEMB     17       POPC     H11X     HAL2     0.900000E-01   1.00800           0
      2331 MEMB     17       POPC     H11Y     HAL2     0.900000E-01   1.00800           0
      2332 MEMB     17       POPC     C312     CTL2    -0.180000       12.0110           0
      2333 MEMB     17       POPC     H12X     HAL2     0.900000E-01   1.00800           0
      2334 MEMB     17       POPC     H12Y     HAL2     0.900000E-01   1.00800           0
      2335 MEMB     17       POPC     C313     CTL2    -0.180000       12.0110           0
      2336 MEMB     17       POPC     H13X     HAL2     0.900000E-01   1.00800           0
      2337 MEMB     17       POPC     H13Y     HAL2     0.900000E-01   1.00800           0
      2338 MEMB     17       POPC     C314     CTL2    -0.180000       12.0110           0
      2339 MEMB     17       POPC     H14X     HAL2     0.900000E-01   1.00800           0
      2340 MEMB     17       POPC     H14Y     HAL2     0.900000E-01   1.00800           0
      2341 MEMB     17       POPC     C315     CTL2    -0.180000       12.0110           0
      2342 MEMB     17       POPC     H15X     HAL2     0.900000E-01   1.00800           0
      2343 MEMB     17       POPC     H15Y     HAL2     0.900000E-01   1.00800           0
      2344 MEMB     17       POPC     C316     CTL3    -0.270000       12.0110           0
      2345 MEMB     17       POPC     H16X     HAL3     0.900000E-01   1.00800           0
      2346 MEMB     17       POPC     H16Y     HAL3     0.900000E-01   1.00800           0
      2347 MEMB     17       POPC     H16Z     HAL3     0.900000E-01   1.00800           0
      2348 MEMB     18       POPC     N        NTL     -0.600000       14.0070           0
      2349 MEMB     18       POPC     C12      CTL2    -0.100000       12.0110           0
      2350 MEMB     18       POPC     H12A     HL       0.250000       1.00800           0
      2351 MEMB     18       POPC     H12B     HL       0.250000       1.00800           0
      2352 MEMB     18       POPC     C13      CTL5    -0.350000       12.0110           0
      2353 MEMB     18       POPC     H13A     HL       0.250000       1.00800           0
      2354 MEMB     18       POPC     H13B     HL       0.250000       1.00800           0
      2355 MEMB     18       POPC     H13C     HL       0.250000       1.00800           0
      2356 MEMB     18       POPC     C14      CTL5    -0.350000       12.0110           0
      2357 MEMB     18       POPC     H14A     HL       0.250000       1.00800           0
      2358 MEMB     18       POPC     H14B     HL       0.250000       1.00800           0
      2359 MEMB     18       POPC     H14C     HL       0.250000       1.00800           0
      2360 MEMB     18       POPC     C15      CTL5    -0.350000       12.0110           0
      2361 MEMB     18       POPC     H15A     HL       0.250000       1.00800           0
      2362 MEMB     18       POPC     H15B     HL       0.250000       1.00800           0
      2363 MEMB     18       POPC     H15C     HL       0.250000       1.00800           0
      2364 MEMB     18       POPC     C11      CTL2    -0.800000E-01   12.0110           0
      2365 MEMB     18       POPC     H11A     HAL2     0.900000E-01   1.00800           0
      2366 MEMB     18       POPC     H11B     HAL2     0.900000E-01   1.00800           0
      2367 MEMB     18       POPC     P        PL        1.50000       30.9740           0
      2368 MEMB     18       POPC     O13      O2L     -0.780000       15.9994           0
      2369 MEMB     18       POPC     O14      O2L     -0.780000       15.9994           0
      2370 MEMB     18       POPC     O12      OSLP    -0.570000       15.9994           0
      2371 MEMB     18       POPC     O11      OSLP    -0.570000       15.9994           0
      2372 MEMB     18       POPC     C1       CTL2    -0.800000E-01   12.0110           0
      2373 MEMB     18       POPC     HA       HAL2     0.900000E-01   1.00800           0
      2374 MEMB     18       POPC     HB       HAL2     0.900000E-01   1.00800           0
      2375 MEMB     18       POPC     C2       CTL1     0.170000       12.0110           0
      2376 MEMB     18       POPC     HS       HAL1     0.900000E-01   1.00800           0
      2377 MEMB     18       POPC     O21      OSL     -0.490000       15.9994           0
      2378 MEMB     18       POPC     C21      CL       0.900000       12.0110           0
      2379 MEMB     18       POPC     O22      OBL     -0.630000       15.9994           0
      2380 MEMB     18       POPC     C22      CTL2    -0.220000       12.0110           0
      2381 MEMB     18       POPC     H2R      HAL2     0.900000E-01   1.00800           0
      2382 MEMB     18       POPC     H2S      HAL2     0.900000E-01   1.00800           0
      2383 MEMB     18       POPC     C3       CTL2     0.800000E-01   12.0110           0
      2384 MEMB     18       POPC     HX       HAL2     0.900000E-01   1.00800           0
      2385 MEMB     18       POPC     HY       HAL2     0.900000E-01   1.00800           0
      2386 MEMB     18       POPC     O31      OSL     -0.490000       15.9994           0
      2387 MEMB     18       POPC     C31      CL       0.900000       12.0110           0
      2388 MEMB     18       POPC     O32      OBL     -0.630000       15.9994           0
      2389 MEMB     18       POPC     C32      CTL2    -0.220000       12.0110           0
      2390 MEMB     18       POPC     H2X      HAL2     0.900000E-01   1.00800           0
      2391 MEMB     18       POPC     H2Y      HAL2     0.900000E-01   1.00800           0
      2392 MEMB     18       POPC     C23      CTL2    -0.180000       12.0110           0
      2393 MEMB     18       POPC     H3R      HAL2     0.900000E-01   1.00800           0
      2394 MEMB     18       POPC     H3S      HAL2     0.900000E-01   1.00800           0
      2395 MEMB     18       POPC     C24      CTL2    -0.180000       12.0110           0
      2396 MEMB     18       POPC     H4R      HAL2     0.900000E-01   1.00800           0
      2397 MEMB     18       POPC     H4S      HAL2     0.900000E-01   1.00800           0
      2398 MEMB     18       POPC     C25      CTL2    -0.180000       12.0110           0
      2399 MEMB     18       POPC     H5R      HAL2     0.900000E-01   1.00800           0
      2400 MEMB     18       POPC     H5S      HAL2     0.900000E-01   1.00800           0
      2401 MEMB     18       POPC     C26      CTL2    -0.180000       12.0110           0
      2402 MEMB     18       POPC     H6R      HAL2     0.900000E-01   1.00800           0
      2403 MEMB     18       POPC     H6S      HAL2     0.900000E-01   1.00800           0
      2404 MEMB     18       POPC     C27      CTL2    -0.180000       12.0110           0
      2405 MEMB     18       POPC     H7R      HAL2     0.900000E-01   1.00800           0
      2406 MEMB     18       POPC     H7S      HAL2     0.900000E-01   1.00800           0
      2407 MEMB     18       POPC     C28      CTL2    -0.180000       12.0110           0
      2408 MEMB     18       POPC     H8R      HAL2     0.900000E-01   1.00800           0
      2409 MEMB     18       POPC     H8S      HAL2     0.900000E-01   1.00800           0
      2410 MEMB     18       POPC     C29      CEL1    -0.150000       12.0110           0
      2411 MEMB     18       POPC     H91      HEL1     0.150000       1.00800           0
      2412 MEMB     18       POPC     C210     CEL1    -0.150000       12.0110           0
      2413 MEMB     18       POPC     H101     HEL1     0.150000       1.00800           0
      2414 MEMB     18       POPC     C211     CTL2    -0.180000       12.0110           0
      2415 MEMB     18       POPC     H11R     HAL2     0.900000E-01   1.00800           0
      2416 MEMB     18       POPC     H11S     HAL2     0.900000E-01   1.00800           0
      2417 MEMB     18       POPC     C212     CTL2    -0.180000       12.0110           0
      2418 MEMB     18       POPC     H12R     HAL2     0.900000E-01   1.00800           0
      2419 MEMB     18       POPC     H12S     HAL2     0.900000E-01   1.00800           0
      2420 MEMB     18       POPC     C213     CTL2    -0.180000       12.0110           0
      2421 MEMB     18       POPC     H13R     HAL2     0.900000E-01   1.00800           0
      2422 MEMB     18       POPC     H13S     HAL2     0.900000E-01   1.00800           0
      2423 MEMB     18       POPC     C214     CTL2    -0.180000       12.0110           0
      2424 MEMB     18       POPC     H14R     HAL2     0.900000E-01   1.00800           0
      2425 MEMB     18       POPC     H14S     HAL2     0.900000E-01   1.00800           0
      2426 MEMB     18       POPC     C215     CTL2    -0.180000       12.0110           0
      2427 MEMB     18       POPC     H15R     HAL2     0.900000E-01   1.00800           0
      2428 MEMB     18       POPC     H15S     HAL2     0.900000E-01   1.00800           0
      2429 MEMB     18       POPC     C216     CTL2    -0.180000       12.0110           0
      2430 MEMB     18       POPC     H16R     HAL2     0.900000E-01   1.00800           0
      2431 MEMB     18       POPC     H16S     HAL2     0.900000E-01   1.00800           0
      2432 MEMB     18       POPC     C217     CTL2    -0.180000       12.0110           0
      2433 MEMB     18       POPC     H17R     HAL2     0.900000E-01   1.00800           0
      2434 MEMB     18       POPC     H17S     HAL2     0.900000E-01   1.00800           0
      2435 MEMB     18       POPC     C218     CTL3    -0.270000       12.0110           0
      2436 MEMB     18       POPC     H18R     HAL3     0.900000E-01   1.00800           0
      2437 MEMB     18       POPC     H18S     HAL3     0.900000E-01   1.00800           0
      2438 MEMB     18       POPC     H18T     HAL3     0.900000E-01   1.00800           0
      2439 MEMB     18       POPC     C33      CTL2    -0.180000       12.0110           0
      2440 MEMB     18       POPC     H3X      HAL2     0.900000E-01   1.00800           0
      2441 MEMB     18       POPC     H3Y      HAL2     0.900000E-01   1.00800           0
      2442 MEMB     18       POPC     C34      CTL2    -0.180000       12.0110           0
      2443 MEMB     18       POPC     H4X      HAL2     0.900000E-01   1.00800           0
      2444 MEMB     18       POPC     H4Y      HAL2     0.900000E-01   1.00800           0
      2445 MEMB     18       POPC     C35      CTL2    -0.180000       12.0110           0
      2446 MEMB     18       POPC     H5X      HAL2     0.900000E-01   1.00800           0
      2447 MEMB     18       POPC     H5Y      HAL2     0.900000E-01   1.00800           0
      2448 MEMB     18       POPC     C36      CTL2    -0.180000       12.0110           0
      2449 MEMB     18       POPC     H6X      HAL2     0.900000E-01   1.00800           0
      2450 MEMB     18       POPC     H6Y      HAL2     0.900000E-01   1.00800           0
      2451 MEMB     18       POPC     C37      CTL2    -0.180000       12.0110           0
      2452 MEMB     18       POPC     H7X      HAL2     0.900000E-01   1.00800           0
      2453 MEMB     18       POPC     H7Y      HAL2     0.900000E-01   1.00800           0
      2454 MEMB     18       POPC     C38      CTL2    -0.180000       12.0110           0
      2455 MEMB     18       POPC     H8X      HAL2     0.900000E-01   1.00800           0
      2456 MEMB     18       POPC     H8Y      HAL2     0.900000E-01   1.00800           0
      2457 MEMB     18       POPC     C39      CTL2    -0.180000       12.0110           0
      2458 MEMB     18       POPC     H9X      HAL2     0.900000E-01   1.00800           0
      2459 MEMB     18       POPC     H9Y      HAL2     0.900000E-01   1.00800           0
      2460 MEMB     18       POPC     C310     CTL2    -0.180000       12.0110           0
      2461 MEMB     18       POPC     H10X     HAL2     0.900000E-01   1.00800           0
      2462 MEMB     18       POPC     H10Y     HAL2     0.900000E-01   1.00800           0
      2463 MEMB     18       POPC     C311     CTL2    -0.180000       12.0110           0
      2464 MEMB     18       POPC     H11X     HAL2     0.900000E-01   1.00800           0
      2465 MEMB     18       POPC     H11Y     HAL2     0.900000E-01   1.00800           0
      2466 MEMB     18       POPC     C312     CTL2    -0.180000       12.0110           0
      2467 MEMB     18       POPC     H12X     HAL2     0.900000E-01   1.00800           0
      2468 MEMB     18       POPC     H12Y     HAL2     0.900000E-01   1.00800           0
      2469 MEMB     18       POPC     C313     CTL2    -0.180000       12.0110           0
      2470 MEMB     18       POPC     H13X     HAL2     0.900000E-01   1.00800           0
      2471 MEMB     18       POPC     H13Y     HAL2     0.900000E-01   1.00800           0
      2472 MEMB     18       POPC     C314     CTL2    -0.180000       12.0110           0
      2473 MEMB     18       POPC     H14X     HAL2     0.900000E-01   1.00800           0
      2474 MEMB     18       POPC     H14Y     HAL2     0.900000E-01   1.00800           0
      2475 MEMB     18       POPC     C315     CTL2    -0.180000       12.0110           0
      2476 MEMB     18       POPC     H15X     HAL2     0.900000E-01   1.00800           0
      2477 MEMB     18       POPC     H15Y     HAL2     0.900000E-01   1.00800           0
      2478 MEMB     18       POPC     C316     CTL3    -0.270000       12.0110           0
      2479 MEMB     18       POPC     H16X     HAL3     0.900000E-01   1.00800           0
      2480 MEMB     18       POPC     H16Y     HAL3     0.900000E-01   1.00800           0
      2481 MEMB     18       POPC     H16Z     HAL3     0.900000E-01   1.00800           0
      2482 MEMB     19       POPC     N        NTL     -0.600000       14.0070           0
      2483 MEMB     19       POPC     C12      CTL2    -0.100000       12.0110           0
      2484 MEMB     19       POPC     H12A     HL       0.250000       1.00800           0
      2485 MEMB     19       POPC     H12B     HL       0.250000       1.00800           0
      2486 MEMB     19       POPC     C13      CTL5    -0.350000       12.0110           0
      2487 MEMB     19       POPC     H13A     HL       0.250000       1.00800           0
      2488 MEMB     19       POPC     H13B     HL       0.250000       1.00800           0
      2489 MEMB     19       POPC     H13C     HL       0.250000       1.00800           0
      2490 MEMB     19       POPC     C14      CTL5    -0.350000       12.0110           0
      2491 MEMB     19       POPC     H14A     HL       0.250000       1.00800           0
      2492 MEMB     19       POPC     H14B     HL       0.250000       1.00800           0
      2493 MEMB     19       POPC     H14C     HL       0.250000       1.00800           0
      2494 MEMB     19       POPC     C15      CTL5    -0.350000       12.0110           0
      2495 MEMB     19       POPC     H15A     HL       0.250000       1.00800           0
      2496 MEMB     19       POPC     H15B     HL       0.250000       1.00800           0
      2497 MEMB     19       POPC     H15C     HL       0.250000       1.00800           0
      2498 MEMB     19       POPC     C11      CTL2    -0.800000E-01   12.0110           0
      2499 MEMB     19       POPC     H11A     HAL2     0.900000E-01   1.00800           0
      2500 MEMB     19       POPC     H11B     HAL2     0.900000E-01   1.00800           0
      2501 MEMB     19       POPC     P        PL        1.50000       30.9740           0
      2502 MEMB     19       POPC     O13      O2L     -0.780000       15.9994           0
      2503 MEMB     19       POPC     O14      O2L     -0.780000       15.9994           0
      2504 MEMB     19       POPC     O12      OSLP    -0.570000       15.9994           0
      2505 MEMB     19       POPC     O11      OSLP    -0.570000       15.9994           0
      2506 MEMB     19       POPC     C1       CTL2    -0.800000E-01   12.0110           0
      2507 MEMB     19       POPC     HA       HAL2     0.900000E-01   1.00800           0
      2508 MEMB     19       POPC     HB       HAL2     0.900000E-01   1.00800           0
      2509 MEMB     19       POPC     C2       CTL1     0.170000       12.0110           0
      2510 MEMB     19       POPC     HS       HAL1     0.900000E-01   1.00800           0
      2511 MEMB     19       POPC     O21      OSL     -0.490000       15.9994           0
      2512 MEMB     19       POPC     C21      CL       0.900000       12.0110           0
      2513 MEMB     19       POPC     O22      OBL     -0.630000       15.9994           0
      2514 MEMB     19       POPC     C22      CTL2    -0.220000       12.0110           0
      2515 MEMB     19       POPC     H2R      HAL2     0.900000E-01   1.00800           0
      2516 MEMB     19       POPC     H2S      HAL2     0.900000E-01   1.00800           0
      2517 MEMB     19       POPC     C3       CTL2     0.800000E-01   12.0110           0
      2518 MEMB     19       POPC     HX       HAL2     0.900000E-01   1.00800           0
      2519 MEMB     19       POPC     HY       HAL2     0.900000E-01   1.00800           0
      2520 MEMB     19       POPC     O31      OSL     -0.490000       15.9994           0
      2521 MEMB     19       POPC     C31      CL       0.900000       12.0110           0
      2522 MEMB     19       POPC     O32      OBL     -0.630000       15.9994           0
      2523 MEMB     19       POPC     C32      CTL2    -0.220000       12.0110           0
      2524 MEMB     19       POPC     H2X      HAL2     0.900000E-01   1.00800           0
      2525 MEMB     19       POPC     H2Y      HAL2     0.900000E-01   1.00800           0
      2526 MEMB     19       POPC     C23      CTL2    -0.180000       12.0110           0
      2527 MEMB     19       POPC     H3R      HAL2     0.900000E-01   1.00800           0
      2528 MEMB     19       POPC     H3S      HAL2     0.900000E-01   1.00800           0
      2529 MEMB     19       POPC     C24      CTL2    -0.180000       12.0110           0
      2530 MEMB     19       POPC     H4R      HAL2     0.900000E-01   1.00800           0
      2531 MEMB     19       POPC     H4S      HAL2     0.900000E-01   1.00800           0
      2532 MEMB     19       POPC     C25      CTL2    -0.180000       12.0110           0
      2533 MEMB     19       POPC     H5R      HAL2     0.900000E-01   1.00800           0
      2534 MEMB     19       POPC     H5S      HAL2     0.900000E-01   1.00800           0
      2535 MEMB     19       POPC     C26      CTL2    -0.180000       12.0110           0
      2536 MEMB     19       POPC     H6R      HAL2     0.900000E-01   1.00800           0
      2537 MEMB     19       POPC     H6S      HAL2     0.900000E-01   1.00800           0
      2538 MEMB     19       POPC     C27      CTL2    -0.180000       12.0110           0
      2539 MEMB     19       POPC     H7R      HAL2     0.900000E-01   1.00800           0
      2540 MEMB     19       POPC     H7S      HAL2     0.900000E-01   1.00800           0
      2541 MEMB     19       POPC     C28      CTL2    -0.180000       12.0110           0
      2542 MEMB     19       POPC     H8R      HAL2     0.900000E-01   1.00800           0
      2543 MEMB     19       POPC     H8S      HAL2     0.900000E-01   1.00800           0
      2544 MEMB     19       POPC     C29      CEL1    -0.150000       12.0110           0
      2545 MEMB     19       POPC     H91      HEL1     0.150000       1.00800           0
      2546 MEMB     19       POPC     C210     CEL1    -0.150000       12.0110           0
      2547 MEMB     19       POPC     H101     HEL1     0.150000       1.00800           0
      2548 MEMB     19       POPC     C211     CTL2    -0.180000       12.0110           0
      2549 MEMB     19       POPC     H11R     HAL2     0.900000E-01   1.00800           0
      2550 MEMB     19       POPC     H11S     HAL2     0.900000E-01   1.00800           0
      2551 MEMB     19       POPC     C212     CTL2    -0.180000       12.0110           0
      2552 MEMB     19       POPC     H12R     HAL2     0.900000E-01   1.00800           0
      2553 MEMB     19       POPC     H12S     HAL2     0.900000E-01   1.00800           0
      2554 MEMB     19       POPC     C213     CTL2    -0.180000       12.0110           0
      2555 MEMB     19       POPC     H13R     HAL2     0.900000E-01   1.00800           0
      2556 MEMB     19       POPC     H13S     HAL2     0.900000E-01   1.00800           0
      2557 MEMB     19       POPC     C214     CTL2    -0.180000       12.0110           0
      2558 MEMB     19       POPC     H14R     HAL2     0.900000E-01   1.00800           0
      2559 MEMB     19       POPC     H14S     HAL2     0.900000E-01   1.00800           0
      2560 MEMB     19       POPC     C215     CTL2    -0.180000       12.0110           0
      2561 MEMB     19       POPC     H15R     HAL2     0.900000E-01   1.00800           0
      2562 MEMB     19       POPC     H15S     HAL2     0.900000E-01   1.00800           0
      2563 MEMB     19       POPC     C216     CTL2    -0.180000       12.0110           0
      2564 MEMB     19       POPC     H16R     HAL2     0.900000E-01   1.00800           0
      2565 MEMB     19       POPC     H16S     HAL2     0.900000E-01   1.00800           0
      2566 MEMB     19       POPC     C217     CTL2    -0.180000       12.0110           0
      2567 MEMB     19       POPC     H17R     HAL2     0.900000E-01   1.00800           0
      2568 MEMB     19       POPC     H17S     HAL2     0.900000E-01   1.00800           0
      2569 MEMB     19       POPC     C218     CTL3    -0.270000       12.0110           0
      2570 MEMB     19       POPC     H18R     HAL3     0.900000E-01   1.00800           0
      2571 MEMB     19       POPC     H18S     HAL3     0.900000E-01   1.00800           0
      2572 MEMB     19       POPC     H18T     HAL3     0.900000E-01   1.00800           0
      2573 MEMB     19       POPC     C33      CTL2    -0.180000       12.0110           0
      2574 MEMB     19       POPC     H3X      HAL2     0.900000E-01   1.00800           0
      2575 MEMB     19       POPC     H3Y      HAL2     0.900000E-01   1.00800           0
      2576 MEMB     19       POPC     C34      CTL2    -0.180000       12.0110           0
      2577 MEMB     19       POPC     H4X      HAL2     0.900000E-01   1.00800           0
      2578 MEMB     19       POPC     H4Y      HAL2     0.900000E-01   1.00800           0
      2579 MEMB     19       POPC     C35      CTL2    -0.180000       12.0110           0
      2580 MEMB     19       POPC     H5X      HAL2     0.900000E-01   1.00800           0
      2581 MEMB     19       POPC     H5Y      HAL2     0.900000E-01   1.00800           0
      2582 MEMB     19       POPC     C36      CTL2    -0.180000       12.0110           0
      2583 MEMB     19       POPC     H6X      HAL2     0.900000E-01   1.00800           0
      2584 MEMB     19       POPC     H6Y      HAL2     0.900000E-01   1.00800           0
      2585 MEMB     19       POPC     C37      CTL2    -0.180000       12.0110           0
      2586 MEMB     19       POPC     H7X      HAL2     0.900000E-01   1.00800           0
      2587 MEMB     19       POPC     H7Y      HAL2     0.900000E-01   1.00800           0
      2588 MEMB     19       POPC     C38      CTL2    -0.180000       12.0110           0
      2589 MEMB     19       POPC     H8X      HAL2     0.900000E-01   1.00800           0
      2590 MEMB     19       POPC     H8Y      HAL2     0.900000E-01   1.00800           0
      2591 MEMB     19       POPC     C39      CTL2    -0.180000       12.0110           0
      2592 MEMB     19       POPC     H9X      HAL2     0.900000E-01   1.00800           0
      2593 MEMB     19       POPC     H9Y      HAL2     0.900000E-01   1.00800           0
      2594 MEMB     19       POPC     C310     CTL2    -0.180000       12.0110           0
      2595 MEMB     19       POPC     H10X     HAL2     0.900000E-01   1.00800           0
      2596 MEMB     19       POPC     H10Y     HAL2     0.900000E-01   1.00800           0
      2597 MEMB     19       POPC     C311     CTL2    -0.180000       12.0110           0
      2598 MEMB     19       POPC     H11X     HAL2     0.900000E-01   1.00800           0
      2599 MEMB     19       POPC     H11Y     HAL2     0.900000E-01   1.00800           0
      2600 MEMB     19       POPC     C312     CTL2    -0.180000       12.0110           0
      2601 MEMB     19       POPC     H12X     HAL2     0.900000E-01   1.00800           0
      2602 MEMB     19       POPC     H12Y     HAL2     0.900000E-01   1.00800           0
      2603 MEMB     19       POPC     C313     CTL2    -0.180000       12.0110           0
      2604 MEMB     19       POPC     H13X     HAL2     0.900000E-01   1.00800           0
      2605 MEMB     19       POPC     H13Y     HAL2     0.900000E-01   1.00800           0
      2606 MEMB     19       POPC     C314     CTL2    -0.180000       12.0110           0
      2607 MEMB     19       POPC     H14X     HAL2     0.900000E-01   1.00800           0
      2608 MEMB     19       POPC     H14Y     HAL2     0.900000E-01   1.00800           0
      2609 MEMB     19       POPC     C315     CTL2    -0.180000       12.0110           0
      2610 MEMB     19       POPC     H15X     HAL2     0.900000E-01   1.00800           0
      2611 MEMB     19       POPC     H15Y     HAL2     0.900000E-01   1.00800           0
      2612 MEMB     19       POPC     C316     CTL3    -0.270000       12.0110           0
      2613 MEMB     19       POPC     H16X     HAL3     0.900000E-01   1.00800           0
      2614 MEMB     19       POPC     H16Y     HAL3     0.900000E-01   1.00800           0
      2615 MEMB     19       POPC     H16Z     HAL3     0.900000E-01   1.00800           0
      2616 MEMB     20       POPS     N        NH3L    -0.300000       14.0070           0
      2617 MEMB     20       POPS     HN1      HCL      0.330000       1.00800           0
      2618 MEMB     20       POPS     HN2      HCL      0.330000       1.00800           0
      2619 MEMB     20       POPS     HN3      HCL      0.330000       1.00800           0
      2620 MEMB     20       POPS     C12      CTL1     0.210000       12.0110           0
      2621 MEMB     20       POPS     H12A     HBL      0.100000       1.00800           0
      2622 MEMB     20       POPS     C13      CCL      0.340000       12.0110           0
      2623 MEMB     20       POPS     O13A     OCL     -0.670000       15.9994           0
      2624 MEMB     20       POPS     O13B     OCL     -0.670000       15.9994           0
      2625 MEMB     20       POPS     C11      CTL2    -0.800000E-01   12.0110           0
      2626 MEMB     20       POPS     H11A     HAL2     0.900000E-01   1.00800           0
      2627 MEMB     20       POPS     H11B     HAL2     0.900000E-01   1.00800           0
      2628 MEMB     20       POPS     P        PL        1.50000       30.9740           0
      2629 MEMB     20       POPS     O13      O2L     -0.780000       15.9994           0
      2630 MEMB     20       POPS     O14      O2L     -0.780000       15.9994           0
      2631 MEMB     20       POPS     O12      OSLP    -0.570000       15.9994           0
      2632 MEMB     20       POPS     O11      OSLP    -0.570000       15.9994           0
      2633 MEMB     20       POPS     C1       CTL2    -0.800000E-01   12.0110           0
      2634 MEMB     20       POPS     HA       HAL2     0.900000E-01   1.00800           0
      2635 MEMB     20       POPS     HB       HAL2     0.900000E-01   1.00800           0
      2636 MEMB     20       POPS     C2       CTL1     0.170000       12.0110           0
      2637 MEMB     20       POPS     HS       HAL1     0.900000E-01   1.00800           0
      2638 MEMB     20       POPS     O21      OSL     -0.490000       15.9994           0
      2639 MEMB     20       POPS     C21      CL       0.900000       12.0110           0
      2640 MEMB     20       POPS     O22      OBL     -0.630000       15.9994           0
      2641 MEMB     20       POPS     C22      CTL2    -0.220000       12.0110           0
      2642 MEMB     20       POPS     H2R      HAL2     0.900000E-01   1.00800           0
      2643 MEMB     20       POPS     H2S      HAL2     0.900000E-01   1.00800           0
      2644 MEMB     20       POPS     C3       CTL2     0.800000E-01   12.0110           0
      2645 MEMB     20       POPS     HX       HAL2     0.900000E-01   1.00800           0
      2646 MEMB     20       POPS     HY       HAL2     0.900000E-01   1.00800           0
      2647 MEMB     20       POPS     O31      OSL     -0.490000       15.9994           0
      2648 MEMB     20       POPS     C31      CL       0.900000       12.0110           0
      2649 MEMB     20       POPS     O32      OBL     -0.630000       15.9994           0
      2650 MEMB     20       POPS     C32      CTL2    -0.220000       12.0110           0
      2651 MEMB     20       POPS     H2X      HAL2     0.900000E-01   1.00800           0
      2652 MEMB     20       POPS     H2Y      HAL2     0.900000E-01   1.00800           0
      2653 MEMB     20       POPS     C23      CTL2    -0.180000       12.0110           0
      2654 MEMB     20       POPS     H3R      HAL2     0.900000E-01   1.00800           0
      2655 MEMB     20       POPS     H3S      HAL2     0.900000E-01   1.00800           0
      2656 MEMB     20       POPS     C24      CTL2    -0.180000       12.0110           0
      2657 MEMB     20       POPS     H4R      HAL2     0.900000E-01   1.00800           0
      2658 MEMB     20       POPS     H4S      HAL2     0.900000E-01   1.00800           0
      2659 MEMB     20       POPS     C25      CTL2    -0.180000       12.0110           0
      2660 MEMB     20       POPS     H5R      HAL2     0.900000E-01   1.00800           0
      2661 MEMB     20       POPS     H5S      HAL2     0.900000E-01   1.00800           0
      2662 MEMB     20       POPS     C26      CTL2    -0.180000       12.0110           0
      2663 MEMB     20       POPS     H6R      HAL2     0.900000E-01   1.00800           0
      2664 MEMB     20       POPS     H6S      HAL2     0.900000E-01   1.00800           0
      2665 MEMB     20       POPS     C27      CTL2    -0.180000       12.0110           0
      2666 MEMB     20       POPS     H7R      HAL2     0.900000E-01   1.00800           0
      2667 MEMB     20       POPS     H7S      HAL2     0.900000E-01   1.00800           0
      2668 MEMB     20       POPS     C28      CTL2    -0.180000       12.0110           0
      2669 MEMB     20       POPS     H8R      HAL2     0.900000E-01   1.00800           0
      2670 MEMB     20       POPS     H8S      HAL2     0.900000E-01   1.00800           0
      2671 MEMB     20       POPS     C29      CEL1    -0.150000       12.0110           0
      2672 MEMB     20       POPS     H91      HEL1     0.150000       1.00800           0
      2673 MEMB     20       POPS     C210     CEL1    -0.150000       12.0110           0
      2674 MEMB     20       POPS     H101     HEL1     0.150000       1.00800           0
      2675 MEMB     20       POPS     C211     CTL2    -0.180000       12.0110           0
      2676 MEMB     20       POPS     H11R     HAL2     0.900000E-01   1.00800           0
      2677 MEMB     20       POPS     H11S     HAL2     0.900000E-01   1.00800           0
      2678 MEMB     20       POPS     C212     CTL2    -0.180000       12.0110           0
      2679 MEMB     20       POPS     H12R     HAL2     0.900000E-01   1.00800           0
      2680 MEMB     20       POPS     H12S     HAL2     0.900000E-01   1.00800           0
      2681 MEMB     20       POPS     C213     CTL2    -0.180000       12.0110           0
      2682 MEMB     20       POPS     H13R     HAL2     0.900000E-01   1.00800           0
      2683 MEMB     20       POPS     H13S     HAL2     0.900000E-01   1.00800           0
      2684 MEMB     20       POPS     C214     CTL2    -0.180000       12.0110           0
      2685 MEMB     20       POPS     H14R     HAL2     0.900000E-01   1.00800           0
      2686 MEMB     20       POPS     H14S     HAL2     0.900000E-01   1.00800           0
      2687 MEMB     20       POPS     C215     CTL2    -0.180000       12.0110           0
      2688 MEMB     20       POPS     H15R     HAL2     0.900000E-01   1.00800           0
      2689 MEMB     20       POPS     H15S     HAL2     0.900000E-01   1.00800           0
      2690 MEMB     20       POPS     C216     CTL2    -0.180000       12.0110           0
      2691 MEMB     20       POPS     H16R     HAL2     0.900000E-01   1.00800           0
      2692 MEMB     20       POPS     H16S     HAL2     0.900000E-01   1.00800           0
      2693 MEMB     20       POPS     C217     CTL2    -0.180000       12.0110           0
      2694 MEMB     20       POPS     H17R     HAL2     0.900000E-01   1.00800           0
      2695 MEMB     20       POPS     H17S     HAL2     0.900000E-01   1.00800           0
      2696 MEMB     20       POPS     C218     CTL3    -0.270000       12.0110           0
      2697 MEMB     20       POPS     H18R     HAL3     0.900000E-01   1.00800           0
      2698 MEMB     20       POPS     H18S     HAL3     0.900000E-01   1.00800           0
      2699 MEMB     20       POPS     H18T     HAL3     0.900000E-01   1.00800           0
      2700 MEMB     20       POPS     C33      CTL2    -0.180000       12.0110           0
      2701 MEMB     20       POPS     H3X      HAL2     0.900000E-01   1.00800           0
      2702 MEMB     20       POPS     H3Y      HAL2     0.900000E-01   1.00800           0
      2703 MEMB     20       POPS     C34      CTL2    -0.180000       12.0110           0
      2704 MEMB     20       POPS     H4X      HAL2     0.900000E-01   1.00800           0
      2705 MEMB     20       POPS     H4Y      HAL2     0.900000E-01   1.00800           0
      2706 MEMB     20       POPS     C35      CTL2    -0.180000       12.0110           0
      2707 MEMB     20       POPS     H5X      HAL2     0.900000E-01   1.00800           0
      2708 MEMB     20       POPS     H5Y      HAL2     0.900000E-01   1.00800           0
      2709 MEMB     20       POPS     C36      CTL2    -0.180000       12.0110           0
      2710 MEMB     20       POPS     H6X      HAL2     0.900000E-01   1.00800           0
      2711 MEMB     20       POPS     H6Y      HAL2     0.900000E-01   1.00800           0
      2712 MEMB     20       POPS     C37      CTL2    -0.180000       12.0110           0
      2713 MEMB     20       POPS     H7X      HAL2     0.900000E-01   1.00800           0
      2714 MEMB     20       POPS     H7Y      HAL2     0.900000E-01   1.00800           0
      2715 MEMB     20       POPS     C38      CTL2    -0.180000       12.0110           0
      2716 MEMB     20       POPS     H8X      HAL2     0.900000E-01   1.00800           0
      2717 MEMB     20       POPS     H8Y      HAL2     0.900000E-01   1.00800           0
      2718 MEMB     20       POPS     C39      CTL2    -0.180000       12.0110           0
      2719 MEMB     20       POPS     H9X      HAL2     0.900000E-01   1.00800           0
      2720 MEMB     20       POPS     H9Y      HAL2     0.900000E-01   1.00800           0
      2721 MEMB     20       POPS     C310     CTL2    -0.180000       12.0110           0
      2722 MEMB     20       POPS     H10X     HAL2     0.900000E-01   1.00800           0
      2723 MEMB     20       POPS     H10Y     HAL2     0.900000E-01   1.00800           0
      2724 MEMB     20       POPS     C311     CTL2    -0.180000       12.0110           0
      2725 MEMB     20       POPS     H11X     HAL2     0.900000E-01   1.00800           0
      2726 MEMB     20       POPS     H11Y     HAL2     0.900000E-01   1.00800           0
      2727 MEMB     20       POPS     C312     CTL2    -0.180000       12.0110           0
      2728 MEMB     20       POPS     H12X     HAL2     0.900000E-01   1.00800           0
      2729 MEMB     20       POPS     H12Y     HAL2     0.900000E-01   1.00800           0
      2730 MEMB     20       POPS     C313     CTL2    -0.180000       12.0110           0
      2731 MEMB     20       POPS     H13X     HAL2     0.900000E-01   1.00800           0
      2732 MEMB     20       POPS     H13Y     HAL2     0.900000E-01   1.00800           0
      2733 MEMB     20       POPS     C314     CTL2    -0.180000       12.0110           0
      2734 MEMB     20       POPS     H14X     HAL2     0.900000E-01   1.00800           0
      2735 MEMB     20       POPS     H14Y     HAL2     0.900000E-01   1.00800           0
      2736 MEMB     20       POPS     C315     CTL2    -0.180000       12.0110           0
      2737 MEMB     20       POPS     H15X     HAL2     0.900000E-01   1.00800           0
      2738 MEMB     20       POPS     H15Y     HAL2     0.900000E-01   1.00800           0
      2739 MEMB     20       POPS     C316     CTL3    -0.270000       12.0110           0
      2740 MEMB     20       POPS     H16X     HAL3     0.900000E-01   1.00800           0
      2741 MEMB     20       POPS     H16Y     HAL3     0.900000E-01   1.00800           0
      2742 MEMB     20       POPS     H16Z     HAL3     0.900000E-01   1.00800           0
      2743 MEMB     21       POPS     N        NH3L    -0.300000       14.0070           0
      2744 MEMB     21       POPS     HN1      HCL      0.330000       1.00800           0
      2745 MEMB     21       POPS     HN2      HCL      0.330000       1.00800           0
      2746 MEMB     21       POPS     HN3      HCL      0.330000       1.00800           0
      2747 MEMB     21       POPS     C12      CTL1     0.210000       12.0110           0
      2748 MEMB     21       POPS     H12A     HBL      0.100000       1.00800           0
      2749 MEMB     21       POPS     C13      CCL      0.340000       12.0110           0
      2750 MEMB     21       POPS     O13A     OCL     -0.670000       15.9994           0
      2751 MEMB     21       POPS     O13B     OCL     -0.670000       15.9994           0
      2752 MEMB     21       POPS     C11      CTL2    -0.800000E-01   12.0110           0
      2753 MEMB     21       POPS     H11A     HAL2     0.900000E-01   1.00800           0
      2754 MEMB     21       POPS     H11B     HAL2     0.900000E-01   1.00800           0
      2755 MEMB     21       POPS     P        PL        1.50000       30.9740           0
      2756 MEMB     21       POPS     O13      O2L     -0.780000       15.9994           0
      2757 MEMB     21       POPS     O14      O2L     -0.780000       15.9994           0
      2758 MEMB     21       POPS     O12      OSLP    -0.570000       15.9994           0
      2759 MEMB     21       POPS     O11      OSLP    -0.570000       15.9994           0
      2760 MEMB     21       POPS     C1       CTL2    -0.800000E-01   12.0110           0
      2761 MEMB     21       POPS     HA       HAL2     0.900000E-01   1.00800           0
      2762 MEMB     21       POPS     HB       HAL2     0.900000E-01   1.00800           0
      2763 MEMB     21       POPS     C2       CTL1     0.170000       12.0110           0
      2764 MEMB     21       POPS     HS       HAL1     0.900000E-01   1.00800           0
      2765 MEMB     21       POPS     O21      OSL     -0.490000       15.9994           0
      2766 MEMB     21       POPS     C21      CL       0.900000       12.0110           0
      2767 MEMB     21       POPS     O22      OBL     -0.630000       15.9994           0
      2768 MEMB     21       POPS     C22      CTL2    -0.220000       12.0110           0
      2769 MEMB     21       POPS     H2R      HAL2     0.900000E-01   1.00800           0
      2770 MEMB     21       POPS     H2S      HAL2     0.900000E-01   1.00800           0
      2771 MEMB     21       POPS     C3       CTL2     0.800000E-01   12.0110           0
      2772 MEMB     21       POPS     HX       HAL2     0.900000E-01   1.00800           0
      2773 MEMB     21       POPS     HY       HAL2     0.900000E-01   1.00800           0
      2774 MEMB     21       POPS     O31      OSL     -0.490000       15.9994           0
      2775 MEMB     21       POPS     C31      CL       0.900000       12.0110           0
      2776 MEMB     21       POPS     O32      OBL     -0.630000       15.9994           0
      2777 MEMB     21       POPS     C32      CTL2    -0.220000       12.0110           0
      2778 MEMB     21       POPS     H2X      HAL2     0.900000E-01   1.00800           0
      2779 MEMB     21       POPS     H2Y      HAL2     0.900000E-01   1.00800           0
      2780 MEMB     21       POPS     C23      CTL2    -0.180000       12.0110           0
      2781 MEMB     21       POPS     H3R      HAL2     0.900000E-01   1.00800           0
      2782 MEMB     21       POPS     H3S      HAL2     0.900000E-01   1.00800           0
      2783 MEMB     21       POPS     C24      CTL2    -0.180000       12.0110           0
      2784 MEMB     21       POPS     H4R      HAL2     0.900000E-01   1.00800           0
      2785 MEMB     21       POPS     H4S      HAL2     0.900000E-01   1.00800           0
      2786 MEMB     21       POPS     C25      CTL2    -0.180000       12.0110           0
      2787 MEMB     21       POPS     H5R      HAL2     0.900000E-01   1.00800           0
      2788 MEMB     21       POPS     H5S      HAL2     0.900000E-01   1.00800           0
      2789 MEMB     21       POPS     C26      CTL2    -0.180000       12.0110           0
      2790 MEMB     21       POPS     H6R      HAL2     0.900000E-01   1.00800           0
      2791 MEMB     21       POPS     H6S      HAL2     0.900000E-01   1.00800           0
      2792 MEMB     21       POPS     C27      CTL2    -0.180000       12.0110           0
      2793 MEMB     21       POPS     H7R      HAL2     0.900000E-01   1.00800           0
      2794 MEMB     21       POPS     H7S      HAL2     0.900000E-01   1.00800           0
      2795 MEMB     21       POPS     C28      CTL2    -0.180000       12.0110           0
      2796 MEMB     21       POPS     H8R      HAL2     0.900000E-01   1.00800           0
      2797 MEMB     21       POPS     H8S      HAL2     0.900000E-01   1.00800           0
      2798 MEMB     21       POPS     C29      CEL1    -0.150000       12.0110           0
      2799 MEMB     21       POPS     H91      HEL1     0.150000       1.00800           0
      2800 MEMB     21       POPS     C210     CEL1    -0.150000       12.0110           0
      2801 MEMB     21       POPS     H101     HEL1     0.150000       1.00800           0
      2802 MEMB     21       POPS     C211     CTL2    -0.180000       12.0110           0
      2803 MEMB     21       POPS     H11R     HAL2     0.900000E-01   1.00800           0
      2804 MEMB     21       POPS     H11S     HAL2     0.900000E-01   1.00800           0
      2805 MEMB     21       POPS     C212     CTL2    -0.180000       12.0110           0
      2806 MEMB     21       POPS     H12R     HAL2     0.900000E-01   1.00800           0
      2807 MEMB     21       POPS     H12S     HAL2     0.900000E-01   1.00800           0
      2808 MEMB     21       POPS     C213     CTL2    -0.180000       12.0110           0
      2809 MEMB     21       POPS     H13R     HAL2     0.900000E-01   1.00800           0
      2810 MEMB     21       POPS     H13S     HAL2     0.900000E-01   1.00800           0
      2811 MEMB     21       POPS     C214     CTL2    -0.180000       12.0110           0
      2812 MEMB     21       POPS     H14R     HAL2     0.900000E-01   1.00800           0
      2813 MEMB     21       POPS     H14S     HAL2     0.900000E-01   1.00800           0
      2814 MEMB     21       POPS     C215     CTL2    -0.180000       12.0110           0
      2815 MEMB     21       POPS     H15R     HAL2     0.900000E-01   1.00800           0
      2816 MEMB     21       POPS     H15S     HAL2     0.900000E-01   1.00800           0
      2817 MEMB     21       POPS     C216     CTL2    -0.180000       12.0110           0
      2818 MEMB     21       POPS     H16R     HAL2     0.900000E-01   1.00800           0
      2819 MEMB     21       POPS     H16S     HAL2     0.900000E-01   1.00800           0
      2820 MEMB     21       POPS     C217     CTL2    -0.180000       12.0110           0
      2821 MEMB     21       POPS     H17R     HAL2     0.900000E-01   1.00800           0
      2822 MEMB     21       POPS     H17S     HAL2     0.900000E-01   1.00800           0
      2823 MEMB     21       POPS     C218     CTL3    -0.270000       12.0110           0
      2824 MEMB     21       POPS     H18R     HAL3     0.900000E-01   1.00800           0
      2825 MEMB     21       POPS     H18S     HAL3     0.900000E-01   1.00800           0
      2826 MEMB     21       POPS     H18T     HAL3     0.900000E-01   1.00800           0
      2827 MEMB     21       POPS     C33      CTL2    -0.180000       12.0110           0
      2828 MEMB     21       POPS     H3X      HAL2     0.900000E-01   1.00800           0
      2829 MEMB     21       POPS     H3Y      HAL2     0.900000E-01   1.00800           0
      2830 MEMB     21       POPS     C34      CTL2    -0.180000       12.0110           0
      2831 MEMB     21       POPS     H4X      HAL2     0.900000E-01   1.00800           0
      2832 MEMB     21       POPS     H4Y      HAL2     0.900000E-01   1.00800           0
      2833 MEMB     21       POPS     C35      CTL2    -0.180000       12.0110           0
      2834 MEMB     21       POPS     H5X      HAL2     0.900000E-01   1.00800           0
      2835 MEMB     21       POPS     H5Y      HAL2     0.900000E-01   1.00800           0
      2836 MEMB     21       POPS     C36      CTL2    -0.180000       12.0110           0
      2837 MEMB     21       POPS     H6X      HAL2     0.900000E-01   1.00800           0
      2838 MEMB     21       POPS     H6Y      HAL2     0.900000E-01   1.00800           0
      2839 MEMB     21       POPS     C37      CTL2    -0.180000       12.0110           0
      2840 MEMB     21       POPS     H7X      HAL2     0.900000E-01   1.00800           0
      2841 MEMB     21       POPS     H7Y      HAL2     0.900000E-01   1.00800           0
      2842 MEMB     21       POPS     C38      CTL2    -0.180000       12.0110           0
      2843 MEMB     21       POPS     H8X      HAL2     0.900000E-01   1.00800           0
      2844 MEMB     21       POPS     H8Y      HAL2     0.900000E-01   1.00800           0
      2845 MEMB     21       POPS     C39      CTL2    -0.180000       12.0110           0
      2846 MEMB     21       POPS     H9X      HAL2     0.900000E-01   1.00800           0
      2847 MEMB     21       POPS     H9Y      HAL2     0.900000E-01   1.00800           0
      2848 MEMB     21       POPS     C310     CTL2    -0.180000       12.0110           0
      2849 MEMB     21       POPS     H10X     HAL2     0.900000E-01   1.00800           0
      2850 MEMB     21       POPS     H10Y     HAL2     0.900000E-01   1.00800           0
      2851 MEMB     21       POPS     C311     CTL2    -0.180000       12.0110           0
      2852 MEMB     21       POPS     H11X     HAL2     0.900000E-01   1.00800           0
      2853 MEMB     21       POPS     H11Y     HAL2     0.900000E-01   1.00800           0
      2854 MEMB     21       POPS     C312     CTL2    -0.180000       12.0110           0
      2855 MEMB     21       POPS     H12X     HAL2     0.900000E-01   1.00800           0
      2856 MEMB     21       POPS     H12Y     HAL2     0.900000E-01   1.00800           0
      2857 MEMB     21       POPS     C313     CTL2    -0.180000       12.0110           0
      2858 MEMB     21       POPS     H13X     HAL2     0.900000E-01   1.00800           0
      2859 MEMB     21       POPS     H13Y     HAL2     0.900000E-01   1.00800           0
      2860 MEMB     21       POPS     C314     CTL2    -0.180000       12.0110           0
      2861 MEMB     21       POPS     H14X     HAL2     0.900000E-01   1.00800           0
      2862 MEMB     21       POPS     H14Y     HAL2     0.900000E-01   1.00800           0
      2863 MEMB     21       POPS     C315     CTL2    -0.180000       12.0110           0
      2864 MEMB     21       POPS     H15X     HAL2     0.900000E-01   1.00800           0
      2865 MEMB     21       POPS     H15Y     HAL2     0.900000E-01   1.00800           0
      2866 MEMB     21       POPS     C316     CTL3    -0.270000       12.0110           0
      2867 MEMB     21       POPS     H16X     HAL3     0.900000E-01   1.00800           0
      2868 MEMB     21       POPS     H16Y     HAL3     0.900000E-01   1.00800           0
      2869 MEMB     21       POPS     H16Z     HAL3     0.900000E-01   1.00800           0
      2870 MEMB     22       POPC     N        NTL     -0.600000       14.0070           0
      2871 MEMB     22       POPC     C12      CTL2    -0.100000       12.0110           0
      2872 MEMB     22       POPC     H12A     HL       0.250000       1.00800           0
      2873 MEMB     22       POPC     H12B     HL       0.250000       1.00800           0
      2874 MEMB     22       POPC     C13      CTL5    -0.350000       12.0110           0
      2875 MEMB     22       POPC     H13A     HL       0.250000       1.00800           0
      2876 MEMB     22       POPC     H13B     HL       0.250000       1.00800           0
      2877 MEMB     22       POPC     H13C     HL       0.250000       1.00800           0
      2878 MEMB     22       POPC     C14      CTL5    -0.350000       12.0110           0
      2879 MEMB     22       POPC     H14A     HL       0.250000       1.00800           0
      2880 MEMB     22       POPC     H14B     HL       0.250000       1.00800           0
      2881 MEMB     22       POPC     H14C     HL       0.250000       1.00800           0
      2882 MEMB     22       POPC     C15      CTL5    -0.350000       12.0110           0
      2883 MEMB     22       POPC     H15A     HL       0.250000       1.00800           0
      2884 MEMB     22       POPC     H15B     HL       0.250000       1.00800           0
      2885 MEMB     22       POPC     H15C     HL       0.250000       1.00800           0
      2886 MEMB     22       POPC     C11      CTL2    -0.800000E-01   12.0110           0
      2887 MEMB     22       POPC     H11A     HAL2     0.900000E-01   1.00800           0
      2888 MEMB     22       POPC     H11B     HAL2     0.900000E-01   1.00800           0
      2889 MEMB     22       POPC     P        PL        1.50000       30.9740           0
      2890 MEMB     22       POPC     O13      O2L     -0.780000       15.9994           0
      2891 MEMB     22       POPC     O14      O2L     -0.780000       15.9994           0
      2892 MEMB     22       POPC     O12      OSLP    -0.570000       15.9994           0
      2893 MEMB     22       POPC     O11      OSLP    -0.570000       15.9994           0
      2894 MEMB     22       POPC     C1       CTL2    -0.800000E-01   12.0110           0
      2895 MEMB     22       POPC     HA       HAL2     0.900000E-01   1.00800           0
      2896 MEMB     22       POPC     HB       HAL2     0.900000E-01   1.00800           0
      2897 MEMB     22       POPC     C2       CTL1     0.170000       12.0110           0
      2898 MEMB     22       POPC     HS       HAL1     0.900000E-01   1.00800           0
      2899 MEMB     22       POPC     O21      OSL     -0.490000       15.9994           0
      2900 MEMB     22       POPC     C21      CL       0.900000       12.0110           0
      2901 MEMB     22       POPC     O22      OBL     -0.630000       15.9994           0
      2902 MEMB     22       POPC     C22      CTL2    -0.220000       12.0110           0
      2903 MEMB     22       POPC     H2R      HAL2     0.900000E-01   1.00800           0
      2904 MEMB     22       POPC     H2S      HAL2     0.900000E-01   1.00800           0
      2905 MEMB     22       POPC     C3       CTL2     0.800000E-01   12.0110           0
      2906 MEMB     22       POPC     HX       HAL2     0.900000E-01   1.00800           0
      2907 MEMB     22       POPC     HY       HAL2     0.900000E-01   1.00800           0
      2908 MEMB     22       POPC     O31      OSL     -0.490000       15.9994           0
      2909 MEMB     22       POPC     C31      CL       0.900000       12.0110           0
      2910 MEMB     22       POPC     O32      OBL     -0.630000       15.9994           0
      2911 MEMB     22       POPC     C32      CTL2    -0.220000       12.0110           0
      2912 MEMB     22       POPC     H2X      HAL2     0.900000E-01   1.00800           0
      2913 MEMB     22       POPC     H2Y      HAL2     0.900000E-01   1.00800           0
      2914 MEMB     22       POPC     C23      CTL2    -0.180000       12.0110           0
      2915 MEMB     22       POPC     H3R      HAL2     0.900000E-01   1.00800           0
      2916 MEMB     22       POPC     H3S      HAL2     0.900000E-01   1.00800           0
      2917 MEMB     22       POPC     C24      CTL2    -0.180000       12.0110           0
      2918 MEMB     22       POPC     H4R      HAL2     0.900000E-01   1.00800           0
      2919 MEMB     22       POPC     H4S      HAL2     0.900000E-01   1.00800           0
      2920 MEMB     22       POPC     C25      CTL2    -0.180000       12.0110           0
      2921 MEMB     22       POPC     H5R      HAL2     0.900000E-01   1.00800           0
      2922 MEMB     22       POPC     H5S      HAL2     0.900000E-01   1.00800           0
      2923 MEMB     22       POPC     C26      CTL2    -0.180000       12.0110           0
      2924 MEMB     22       POPC     H6R      HAL2     0.900000E-01   1.00800           0
      2925 MEMB     22       POPC     H6S      HAL2     0.900000E-01   1.00800           0
      2926 MEMB     22       POPC     C27      CTL2    -0.180000       12.0110           0
      2927 MEMB     22       POPC     H7R      HAL2     0.900000E-01   1.00800           0
      2928 MEMB     22       POPC     H7S      HAL2     0.900000E-01   1.00800           0
      2929 MEMB     22       POPC     C28      CTL2    -0.180000       12.0110           0
      2930 MEMB     22       POPC     H8R      HAL2     0.900000E-01   1.00800           0
      2931 MEMB     22       POPC     H8S      HAL2     0.900000E-01   1.00800           0
      2932 MEMB     22       POPC     C29      CEL1    -0.150000       12.0110           0
      2933 MEMB     22       POPC     H91      HEL1     0.150000       1.00800           0
      2934 MEMB     22       POPC     C210     CEL1    -0.150000       12.0110           0
      2935 MEMB     22       POPC     H101     HEL1     0.150000       1.00800           0
      2936 MEMB     22       POPC     C211     CTL2    -0.180000       12.0110           0
      2937 MEMB     22       POPC     H11R     HAL2     0.900000E-01   1.00800           0
      2938 MEMB     22       POPC     H11S     HAL2     0.900000E-01   1.00800           0
      2939 MEMB     22       POPC     C212     CTL2    -0.180000       12.0110           0
      2940 MEMB     22       POPC     H12R     HAL2     0.900000E-01   1.00800           0
      2941 MEMB     22       POPC     H12S     HAL2     0.900000E-01   1.00800           0
      2942 MEMB     22       POPC     C213     CTL2    -0.180000       12.0110           0
      2943 MEMB     22       POPC     H13R     HAL2     0.900000E-01   1.00800           0
      2944 MEMB     22       POPC     H13S     HAL2     0.900000E-01   1.00800           0
      2945 MEMB     22       POPC     C214     CTL2    -0.180000       12.0110           0
      2946 MEMB     22       POPC     H14R     HAL2     0.900000E-01   1.00800           0
      2947 MEMB     22       POPC     H14S     HAL2     0.900000E-01   1.00800           0
      2948 MEMB     22       POPC     C215     CTL2    -0.180000       12.0110           0
      2949 MEMB     22       POPC     H15R     HAL2     0.900000E-01   1.00800           0
      2950 MEMB     22       POPC     H15S     HAL2     0.900000E-01   1.00800           0
      2951 MEMB     22       POPC     C216     CTL2    -0.180000       12.0110           0
      2952 MEMB     22       POPC     H16R     HAL2     0.900000E-01   1.00800           0
      2953 MEMB     22       POPC     H16S     HAL2     0.900000E-01   1.00800           0
      2954 MEMB     22       POPC     C217     CTL2    -0.180000       12.0110           0
      2955 MEMB     22       POPC     H17R     HAL2     0.900000E-01   1.00800           0
      2956 MEMB     22       POPC     H17S     HAL2     0.900000E-01   1.00800           0
      2957 MEMB     22       POPC     C218     CTL3    -0.270000       12.0110           0
      2958 MEMB     22       POPC     H18R     HAL3     0.900000E-01   1.00800           0
      2959 MEMB     22       POPC     H18S     HAL3     0.900000E-01   1.00800           0
      2960 MEMB     22       POPC     H18T     HAL3     0.900000E-01   1.00800           0
      2961 MEMB     22       POPC     C33      CTL2    -0.180000       12.0110           0
      2962 MEMB     22       POPC     H3X      HAL2     0.900000E-01   1.00800           0
      2963 MEMB     22       POPC     H3Y      HAL2     0.900000E-01   1.00800           0
      2964 MEMB     22       POPC     C34      CTL2    -0.180000       12.0110           0
      2965 MEMB     22       POPC     H4X      HAL2     0.900000E-01   1.00800           0
      2966 MEMB     22       POPC     H4Y      HAL2     0.900000E-01   1.00800           0
      2967 MEMB     22       POPC     C35      CTL2    -0.180000       12.0110           0
      2968 MEMB     22       POPC     H5X      HAL2     0.900000E-01   1.00800           0
      2969 MEMB     22       POPC     H5Y      HAL2     0.900000E-01   1.00800           0
      2970 MEMB     22       POPC     C36      CTL2    -0.180000       12.0110           0
      2971 MEMB     22       POPC     H6X      HAL2     0.900000E-01   1.00800           0
      2972 MEMB     22       POPC     H6Y      HAL2     0.900000E-01   1.00800           0
      2973 MEMB     22       POPC     C37      CTL2    -0.180000       12.0110           0
      2974 MEMB     22       POPC     H7X      HAL2     0.900000E-01   1.00800           0
      2975 MEMB     22       POPC     H7Y      HAL2     0.900000E-01   1.00800           0
      2976 MEMB     22       POPC     C38      CTL2    -0.180000       12.0110           0
      2977 MEMB     22       POPC     H8X      HAL2     0.900000E-01   1.00800           0
      2978 MEMB     22       POPC     H8Y      HAL2     0.900000E-01   1.00800           0
      2979 MEMB     22       POPC     C39      CTL2    -0.180000       12.0110           0
      2980 MEMB     22       POPC     H9X      HAL2     0.900000E-01   1.00800           0
      2981 MEMB     22       POPC     H9Y      HAL2     0.900000E-01   1.00800           0
      2982 MEMB     22       POPC     C310     CTL2    -0.180000       12.0110           0
      2983 MEMB     22       POPC     H10X     HAL2     0.900000E-01   1.00800           0
      2984 MEMB     22       POPC     H10Y     HAL2     0.900000E-01   1.00800           0
      2985 MEMB     22       POPC     C311     CTL2    -0.180000       12.0110           0
      2986 MEMB     22       POPC     H11X     HAL2     0.900000E-01   1.00800           0
      2987 MEMB     22       POPC     H11Y     HAL2     0.900000E-01   1.00800           0
      2988 MEMB     22       POPC     C312     CTL2    -0.180000       12.0110           0
      2989 MEMB     22       POPC     H12X     HAL2     0.900000E-01   1.00800           0
      2990 MEMB     22       POPC     H12Y     HAL2     0.900000E-01   1.00800           0
      2991 MEMB     22       POPC     C313     CTL2    -0.180000       12.0110           0
      2992 MEMB     22       POPC     H13X     HAL2     0.900000E-01   1.00800           0
      2993 MEMB     22       POPC     H13Y     HAL2     0.900000E-01   1.00800           0
      2994 MEMB     22       POPC     C314     CTL2    -0.180000       12.0110           0
      2995 MEMB     22       POPC     H14X     HAL2     0.900000E-01   1.00800           0
      2996 MEMB     22       POPC     H14Y     HAL2     0.900000E-01   1.00800           0
      2997 MEMB     22       POPC     C315     CTL2    -0.180000       12.0110           0
      2998 MEMB     22       POPC     H15X     HAL2     0.900000E-01   1.00800           0
      2999 MEMB     22       POPC     H15Y     HAL2     0.900000E-01   1.00800           0
      3000 MEMB     22       POPC     C316     CTL3    -0.270000       12.0110           0
      3001 MEMB     22       POPC     H16X     HAL3     0.900000E-01   1.00800           0
      3002 MEMB     22       POPC     H16Y     HAL3     0.900000E-01   1.00800           0
      3003 MEMB     22       POPC     H16Z     HAL3     0.900000E-01   1.00800           0
      3004 MEMB     23       POPC     N        NTL     -0.600000       14.0070           0
      3005 MEMB     23       POPC     C12      CTL2    -0.100000       12.0110           0
      3006 MEMB     23       POPC     H12A     HL       0.250000       1.00800           0
      3007 MEMB     23       POPC     H12B     HL       0.250000       1.00800           0
      3008 MEMB     23       POPC     C13      CTL5    -0.350000       12.0110           0
      3009 MEMB     23       POPC     H13A     HL       0.250000       1.00800           0
      3010 MEMB     23       POPC     H13B     HL       0.250000       1.00800           0
      3011 MEMB     23       POPC     H13C     HL       0.250000       1.00800           0
      3012 MEMB     23       POPC     C14      CTL5    -0.350000       12.0110           0
      3013 MEMB     23       POPC     H14A     HL       0.250000       1.00800           0
      3014 MEMB     23       POPC     H14B     HL       0.250000       1.00800           0
      3015 MEMB     23       POPC     H14C     HL       0.250000       1.00800           0
      3016 MEMB     23       POPC     C15      CTL5    -0.350000       12.0110           0
      3017 MEMB     23       POPC     H15A     HL       0.250000       1.00800           0
      3018 MEMB     23       POPC     H15B     HL       0.250000       1.00800           0
      3019 MEMB     23       POPC     H15C     HL       0.250000       1.00800           0
      3020 MEMB     23       POPC     C11      CTL2    -0.800000E-01   12.0110           0
      3021 MEMB     23       POPC     H11A     HAL2     0.900000E-01   1.00800           0
      3022 MEMB     23       POPC     H11B     HAL2     0.900000E-01   1.00800           0
      3023 MEMB     23       POPC     P        PL        1.50000       30.9740           0
      3024 MEMB     23       POPC     O13      O2L     -0.780000       15.9994           0
      3025 MEMB     23       POPC     O14      O2L     -0.780000       15.9994           0
      3026 MEMB     23       POPC     O12      OSLP    -0.570000       15.9994           0
      3027 MEMB     23       POPC     O11      OSLP    -0.570000       15.9994           0
      3028 MEMB     23       POPC     C1       CTL2    -0.800000E-01   12.0110           0
      3029 MEMB     23       POPC     HA       HAL2     0.900000E-01   1.00800           0
      3030 MEMB     23       POPC     HB       HAL2     0.900000E-01   1.00800           0
      3031 MEMB     23       POPC     C2       CTL1     0.170000       12.0110           0
      3032 MEMB     23       POPC     HS       HAL1     0.900000E-01   1.00800           0
      3033 MEMB     23       POPC     O21      OSL     -0.490000       15.9994           0
      3034 MEMB     23       POPC     C21      CL       0.900000       12.0110           0
      3035 MEMB     23       POPC     O22      OBL     -0.630000       15.9994           0
      3036 MEMB     23       POPC     C22      CTL2    -0.220000       12.0110           0
      3037 MEMB     23       POPC     H2R      HAL2     0.900000E-01   1.00800           0
      3038 MEMB     23       POPC     H2S      HAL2     0.900000E-01   1.00800           0
      3039 MEMB     23       POPC     C3       CTL2     0.800000E-01   12.0110           0
      3040 MEMB     23       POPC     HX       HAL2     0.900000E-01   1.00800           0
      3041 MEMB     23       POPC     HY       HAL2     0.900000E-01   1.00800           0
      3042 MEMB     23       POPC     O31      OSL     -0.490000       15.9994           0
      3043 MEMB     23       POPC     C31      CL       0.900000       12.0110           0
      3044 MEMB     23       POPC     O32      OBL     -0.630000       15.9994           0
      3045 MEMB     23       POPC     C32      CTL2    -0.220000       12.0110           0
      3046 MEMB     23       POPC     H2X      HAL2     0.900000E-01   1.00800           0
      3047 MEMB     23       POPC     H2Y      HAL2     0.900000E-01   1.00800           0
      3048 MEMB     23       POPC     C23      CTL2    -0.180000       12.0110           0
      3049 MEMB     23       POPC     H3R      HAL2     0.900000E-01   1.00800           0
      3050 MEMB     23       POPC     H3S      HAL2     0.900000E-01   1.00800           0
      3051 MEMB     23       POPC     C24      CTL2    -0.180000       12.0110           0
      3052 MEMB     23       POPC     H4R      HAL2     0.900000E-01   1.00800           0
      3053 MEMB     23       POPC     H4S      HAL2     0.900000E-01   1.00800           0
      3054 MEMB     23       POPC     C25      CTL2    -0.180000       12.0110           0
      3055 MEMB     23       POPC     H5R      HAL2     0.900000E-01   1.00800           0
      3056 MEMB     23       POPC     H5S      HAL2     0.900000E-01   1.00800           0
      3057 MEMB     23       POPC     C26      CTL2    -0.180000       12.0110           0
      3058 MEMB     23       POPC     H6R      HAL2     0.900000E-01   1.00800           0
      3059 MEMB     23       POPC     H6S      HAL2     0.900000E-01   1.00800           0
      3060 MEMB     23       POPC     C27      CTL2    -0.180000       12.0110           0
      3061 MEMB     23       POPC     H7R      HAL2     0.900000E-01   1.00800           0
      3062 MEMB     23       POPC     H7S      HAL2     0.900000E-01   1.00800           0
      3063 MEMB     23       POPC     C28      CTL2    -0.180000       12.0110           0
      3064 MEMB     23       POPC     H8R      HAL2     0.900000E-01   1.00800           0
      3065 MEMB     23       POPC     H8S      HAL2     0.900000E-01   1.00800           0
      3066 MEMB     23       POPC     C29      CEL1    -0.150000       12.0110           0
      3067 MEMB     23       POPC     H91      HEL1     0.150000       1.00800           0
      3068 MEMB     23       POPC     C210     CEL1    -0.150000       12.0110           0
      3069 MEMB     23       POPC     H101     HEL1     0.150000       1.00800           0
      3070 MEMB     23       POPC     C211     CTL2    -0.180000       12.0110           0
      3071 MEMB     23       POPC     H11R     HAL2     0.900000E-01   1.00800           0
      3072 MEMB     23       POPC     H11S     HAL2     0.900000E-01   1.00800           0
      3073 MEMB     23       POPC     C212     CTL2    -0.180000       12.0110           0
      3074 MEMB     23       POPC     H12R     HAL2     0.900000E-01   1.00800           0
      3075 MEMB     23       POPC     H12S     HAL2     0.900000E-01   1.00800           0
      3076 MEMB     23       POPC     C213     CTL2    -0.180000       12.0110           0
      3077 MEMB     23       POPC     H13R     HAL2     0.900000E-01   1.00800           0
      3078 MEMB     23       POPC     H13S     HAL2     0.900000E-01   1.00800           0
      3079 MEMB     23       POPC     C214     CTL2    -0.180000       12.0110           0
      3080 MEMB     23       POPC     H14R     HAL2     0.900000E-01   1.00800           0
      3081 MEMB     23       POPC     H14S     HAL2     0.900000E-01   1.00800           0
      3082 MEMB     23       POPC     C215     CTL2    -0.180000       12.0110           0
      3083 MEMB     23       POPC     H15R     HAL2     0.900000E-01   1.00800           0
      3084 MEMB     23       POPC     H15S     HAL2     0.900000E-01   1.00800           0
      3085 MEMB     23       POPC     C216     CTL2    -0.180000       12.0110           0
      3086 MEMB     23       POPC     H16R     HAL2     0.900000E-01   1.00800           0
      3087 MEMB     23       POPC     H16S     HAL2     0.900000E-01   1.00800           0
      3088 MEMB     23       POPC     C217     CTL2    -0.180000       12.0110           0
      3089 MEMB     23       POPC     H17R     HAL2     0.900000E-01   1.00800           0
      3090 MEMB     23       POPC     H17S     HAL2     0.900000E-01   1.00800           0
      3091 MEMB     23       POPC     C218     CTL3    -0.270000       12.0110           0
      3092 MEMB     23       POPC     H18R     HAL3     0.900000E-01   1.00800           0
      3093 MEMB     23       POPC     H18S     HAL3     0.900000E-01   1.00800           0
      3094 MEMB     23       POPC     H18T     HAL3     0.900000E-01   1.00800           0
      3095 MEMB     23       POPC     C33      CTL2    -0.180000       12.0110           0
      3096 MEMB     23       POPC     H3X      HAL2     0.900000E-01   1.00800           0
      3097 MEMB     23       POPC     H3Y      HAL2     0.900000E-01   1.00800           0
      3098 MEMB     23       POPC     C34      CTL2    -0.180000       12.0110           0
      3099 MEMB     23       POPC     H4X      HAL2     0.900000E-01   1.00800           0
      3100 MEMB     23       POPC     H4Y      HAL2     0.900000E-01   1.00800           0
      3101 MEMB     23       POPC     C35      CTL2    -0.180000       12.0110           0
      3102 MEMB     23       POPC     H5X      HAL2     0.900000E-01   1.00800           0
      3103 MEMB     23       POPC     H5Y      HAL2     0.900000E-01   1.00800           0
      3104 MEMB     23       POPC     C36      CTL2    -0.180000       12.0110           0
      3105 MEMB     23       POPC     H6X      HAL2     0.900000E-01   1.00800           0
      3106 MEMB     23       POPC     H6Y      HAL2     0.900000E-01   1.00800           0
      3107 MEMB     23       POPC     C37      CTL2    -0.180000       12.0110           0
      3108 MEMB     23       POPC     H7X      HAL2     0.900000E-01   1.00800           0
      3109 MEMB     23       POPC     H7Y      HAL2     0.900000E-01   1.00800           0
      3110 MEMB     23       POPC     C38      CTL2    -0.180000       12.0110           0
      3111 MEMB     23       POPC     H8X      HAL2     0.900000E-01   1.00800           0
      3112 MEMB     23       POPC     H8Y      HAL2     0.900000E-01   1.00800           0
      3113 MEMB     23       POPC     C39      CTL2    -0.180000       12.0110           0
      3114 MEMB     23       POPC     H9X      HAL2     0.900000E-01   1.00800           0
      3115 MEMB     23       POPC     H9Y      HAL2     0.900000E-01   1.00800           0
      3116 MEMB     23       POPC     C310     CTL2    -0.180000       12.0110           0
      3117 MEMB     23       POPC     H10X     HAL2     0.900000E-01   1.00800           0
      3118 MEMB     23       POPC     H10Y     HAL2     0.900000E-01   1.00800           0
      3119 MEMB     23       POPC     C311     CTL2    -0.180000       12.0110           0
      3120 MEMB     23       POPC     H11X     HAL2     0.900000E-01   1.00800           0
      3121 MEMB     23       POPC     H11Y     HAL2     0.900000E-01   1.00800           0
      3122 MEMB     23       POPC     C312     CTL2    -0.180000       12.0110           0
      3123 MEMB     23       POPC     H12X     HAL2     0.900000E-01   1.00800           0
      3124 MEMB     23       POPC     H12Y     HAL2     0.900000E-01   1.00800           0
      3125 MEMB     23       POPC     C313     CTL2    -0.180000       12.0110           0
      3126 MEMB     23       POPC     H13X     HAL2     0.900000E-01   1.00800           0
      3127 MEMB     23       POPC     H13Y     HAL2     0.900000E-01   1.00800           0
      3128 MEMB     23       POPC     C314     CTL2    -0.180000       12.0110           0
      3129 MEMB     23       POPC     H14X     HAL2     0.900000E-01   1.00800           0
      3130 MEMB     23       POPC     H14Y     HAL2     0.900000E-01   1.00800           0
      3131 MEMB     23       POPC     C315     CTL2    -0.180000       12.0110           0
      3132 MEMB     23       POPC     H15X     HAL2     0.900000E-01   1.00800           0
      3133 MEMB     23       POPC     H15Y     HAL2     0.900000E-01   1.00800           0
      3134 MEMB     23       POPC     C316     CTL3    -0.270000       12.0110           0
      3135 MEMB     23       POPC     H16X     HAL3     0.900000E-01   1.00800           0
      3136 MEMB     23       POPC     H16Y     HAL3     0.900000E-01   1.00800           0
      3137 MEMB     23       POPC     H16Z     HAL3     0.900000E-01   1.00800           0
      3138 MEMB     24       POPS     N        NH3L    -0.300000       14.0070           0
      3139 MEMB     24       POPS     HN1      HCL      0.330000       1.00800           0
      3140 MEMB     24       POPS     HN2      HCL      0.330000       1.00800           0
      3141 MEMB     24       POPS     HN3      HCL      0.330000       1.00800           0
      3142 MEMB     24       POPS     C12      CTL1     0.210000       12.0110           0
      3143 MEMB     24       POPS     H12A     HBL      0.100000       1.00800           0
      3144 MEMB     24       POPS     C13      CCL      0.340000       12.0110           0
      3145 MEMB     24       POPS     O13A     OCL     -0.670000       15.9994           0
      3146 MEMB     24       POPS     O13B     OCL     -0.670000       15.9994           0
      3147 MEMB     24       POPS     C11      CTL2    -0.800000E-01   12.0110           0
      3148 MEMB     24       POPS     H11A     HAL2     0.900000E-01   1.00800           0
      3149 MEMB     24       POPS     H11B     HAL2     0.900000E-01   1.00800           0
      3150 MEMB     24       POPS     P        PL        1.50000       30.9740           0
      3151 MEMB     24       POPS     O13      O2L     -0.780000       15.9994           0
      3152 MEMB     24       POPS     O14      O2L     -0.780000       15.9994           0
      3153 MEMB     24       POPS     O12      OSLP    -0.570000       15.9994           0
      3154 MEMB     24       POPS     O11      OSLP    -0.570000       15.9994           0
      3155 MEMB     24       POPS     C1       CTL2    -0.800000E-01   12.0110           0
      3156 MEMB     24       POPS     HA       HAL2     0.900000E-01   1.00800           0
      3157 MEMB     24       POPS     HB       HAL2     0.900000E-01   1.00800           0
      3158 MEMB     24       POPS     C2       CTL1     0.170000       12.0110           0
      3159 MEMB     24       POPS     HS       HAL1     0.900000E-01   1.00800           0
      3160 MEMB     24       POPS     O21      OSL     -0.490000       15.9994           0
      3161 MEMB     24       POPS     C21      CL       0.900000       12.0110           0
      3162 MEMB     24       POPS     O22      OBL     -0.630000       15.9994           0
      3163 MEMB     24       POPS     C22      CTL2    -0.220000       12.0110           0
      3164 MEMB     24       POPS     H2R      HAL2     0.900000E-01   1.00800           0
      3165 MEMB     24       POPS     H2S      HAL2     0.900000E-01   1.00800           0
      3166 MEMB     24       POPS     C3       CTL2     0.800000E-01   12.0110           0
      3167 MEMB     24       POPS     HX       HAL2     0.900000E-01   1.00800           0
      3168 MEMB     24       POPS     HY       HAL2     0.900000E-01   1.00800           0
      3169 MEMB     24       POPS     O31      OSL     -0.490000       15.9994           0
      3170 MEMB     24       POPS     C31      CL       0.900000       12.0110           0
      3171 MEMB     24       POPS     O32      OBL     -0.630000       15.9994           0
      3172 MEMB     24       POPS     C32      CTL2    -0.220000       12.0110           0
      3173 MEMB     24       POPS     H2X      HAL2     0.900000E-01   1.00800           0
      3174 MEMB     24       POPS     H2Y      HAL2     0.900000E-01   1.00800           0
      3175 MEMB     24       POPS     C23      CTL2    -0.180000       12.0110           0
      3176 MEMB     24       POPS     H3R      HAL2     0.900000E-01   1.00800           0
      3177 MEMB     24       POPS     H3S      HAL2     0.900000E-01   1.00800           0
      3178 MEMB     24       POPS     C24      CTL2    -0.180000       12.0110           0
      3179 MEMB     24       POPS     H4R      HAL2     0.900000E-01   1.00800           0
      3180 MEMB     24       POPS     H4S      HAL2     0.900000E-01   1.00800           0
      3181 MEMB     24       POPS     C25      CTL2    -0.180000       12.0110           0
      3182 MEMB     24       POPS     H5R      HAL2     0.900000E-01   1.00800           0
      3183 MEMB     24       POPS     H5S      HAL2     0.900000E-01   1.00800           0
      3184 MEMB     24       POPS     C26      CTL2    -0.180000       12.0110           0
      3185 MEMB     24       POPS     H6R      HAL2     0.900000E-01   1.00800           0
      3186 MEMB     24       POPS     H6S      HAL2     0.900000E-01   1.00800           0
      3187 MEMB     24       POPS     C27      CTL2    -0.180000       12.0110           0
      3188 MEMB     24       POPS     H7R      HAL2     0.900000E-01   1.00800           0
      3189 MEMB     24       POPS     H7S      HAL2     0.900000E-01   1.00800           0
      3190 MEMB     24       POPS     C28      CTL2    -0.180000       12.0110           0
      3191 MEMB     24       POPS     H8R      HAL2     0.900000E-01   1.00800           0
      3192 MEMB     24       POPS     H8S      HAL2     0.900000E-01   1.00800           0
      3193 MEMB     24       POPS     C29      CEL1    -0.150000       12.0110           0
      3194 MEMB     24       POPS     H91      HEL1     0.150000       1.00800           0
      3195 MEMB     24       POPS     C210     CEL1    -0.150000       12.0110           0
      3196 MEMB     24       POPS     H101     HEL1     0.150000       1.00800           0
      3197 MEMB     24       POPS     C211     CTL2    -0.180000       12.0110           0
      3198 MEMB     24       POPS     H11R     HAL2     0.900000E-01   1.00800           0
      3199 MEMB     24       POPS     H11S     HAL2     0.900000E-01   1.00800           0
      3200 MEMB     24       POPS     C212     CTL2    -0.180000       12.0110           0
      3201 MEMB     24       POPS     H12R     HAL2     0.900000E-01   1.00800           0
      3202 MEMB     24       POPS     H12S     HAL2     0.900000E-01   1.00800           0
      3203 MEMB     24       POPS     C213     CTL2    -0.180000       12.0110           0
      3204 MEMB     24       POPS     H13R     HAL2     0.900000E-01   1.00800           0
      3205 MEMB     24       POPS     H13S     HAL2     0.900000E-01   1.00800           0
      3206 MEMB     24       POPS     C214     CTL2    -0.180000       12.0110           0
      3207 MEMB     24       POPS     H14R     HAL2     0.900000E-01   1.00800           0
      3208 MEMB     24       POPS     H14S     HAL2     0.900000E-01   1.00800           0
      3209 MEMB     24       POPS     C215     CTL2    -0.180000       12.0110           0
      3210 MEMB     24       POPS     H15R     HAL2     0.900000E-01   1.00800           0
      3211 MEMB     24       POPS     H15S     HAL2     0.900000E-01   1.00800           0
      3212 MEMB     24       POPS     C216     CTL2    -0.180000       12.0110           0
      3213 MEMB     24       POPS     H16R     HAL2     0.900000E-01   1.00800           0
      3214 MEMB     24       POPS     H16S     HAL2     0.900000E-01   1.00800           0
      3215 MEMB     24       POPS     C217     CTL2    -0.180000       12.0110           0
      3216 MEMB     24       POPS     H17R     HAL2     0.900000E-01   1.00800           0
      3217 MEMB     24       POPS     H17S     HAL2     0.900000E-01   1.00800           0
      3218 MEMB     24       POPS     C218     CTL3    -0.270000       12.0110           0
      3219 MEMB     24       POPS     H18R     HAL3     0.900000E-01   1.00800           0
      3220 MEMB     24       POPS     H18S     HAL3     0.900000E-01   1.00800           0
      3221 MEMB     24       POPS     H18T     HAL3     0.900000E-01   1.00800           0
      3222 MEMB     24       POPS     C33      CTL2    -0.180000       12.0110           0
      3223 MEMB     24       POPS     H3X      HAL2     0.900000E-01   1.00800           0
      3224 MEMB     24       POPS     H3Y      HAL2     0.900000E-01   1.00800           0
      3225 MEMB     24       POPS     C34      CTL2    -0.180000       12.0110           0
      3226 MEMB     24       POPS     H4X      HAL2     0.900000E-01   1.00800           0
      3227 MEMB     24       POPS     H4Y      HAL2     0.900000E-01   1.00800           0
      3228 MEMB     24       POPS     C35      CTL2    -0.180000       12.0110           0
      3229 MEMB     24       POPS     H5X      HAL2     0.900000E-01   1.00800           0
      3230 MEMB     24       POPS     H5Y      HAL2     0.900000E-01   1.00800           0
      3231 MEMB     24       POPS     C36      CTL2    -0.180000       12.0110           0
      3232 MEMB     24       POPS     H6X      HAL2     0.900000E-01   1.00800           0
      3233 MEMB     24       POPS     H6Y      HAL2     0.900000E-01   1.00800           0
      3234 MEMB     24       POPS     C37      CTL2    -0.180000       12.0110           0
      3235 MEMB     24       POPS     H7X      HAL2     0.900000E-01   1.00800           0
      3236 MEMB     24       POPS     H7Y      HAL2     0.900000E-01   1.00800           0
      3237 MEMB     24       POPS     C38      CTL2    -0.180000       12.0110           0
      3238 MEMB     24       POPS     H8X      HAL2     0.900000E-01   1.00800           0
      3239 MEMB     24       POPS     H8Y      HAL2     0.900000E-01   1.00800           0
      3240 MEMB     24       POPS     C39      CTL2    -0.180000       12.0110           0
      3241 MEMB     24       POPS     H9X      HAL2     0.900000E-01   1.00800           0
      3242 MEMB     24       POPS     H9Y      HAL2     0.900000E-01   1.00800           0
      3243 MEMB     24       POPS     C310     CTL2    -0.180000       12.0110           0
      3244 MEMB     24       POPS     H10X     HAL2     0.900000E-01   1.00800           0
      3245 MEMB     24       POPS     H10Y     HAL2     0.900000E-01   1.00800           0
      3246 MEMB     24       POPS     C311     CTL2    -0.180000       12.0110           0
      3247 MEMB     24       POPS     H11X     HAL2     0.900000E-01   1.00800           0
      3248 MEMB     24       POPS     H11Y     HAL2     0.900000E-01   1.00800           0
      3249 MEMB     24       POPS     C312     CTL2    -0.180000       12.0110           0
      3250 MEMB     24       POPS     H12X     HAL2     0.900000E-01   1.00800           0
      3251 MEMB     24       POPS     H12Y     HAL2     0.900000E-01   1.00800           0
      3252 MEMB     24       POPS     C313     CTL2    -0.180000       12.0110           0
      3253 MEMB     24       POPS     H13X     HAL2     0.900000E-01   1.00800           0
      3254 MEMB     24       POPS     H13Y     HAL2     0.900000E-01   1.00800           0
      3255 MEMB     24       POPS     C314     CTL2    -0.180000       12.0110           0
      3256 MEMB     24       POPS     H14X     HAL2     0.900000E-01   1.00800           0
      3257 MEMB     24       POPS     H14Y     HAL2     0.900000E-01   1.00800           0
      3258 MEMB     24       POPS     C315     CTL2    -0.180000       12.0110           0
      3259 MEMB     24       POPS     H15X     HAL2     0.900000E-01   1.00800           0
      3260 MEMB     24       POPS     H15Y     HAL2     0.900000E-01   1.00800           0
      3261 MEMB     24       POPS     C316     CTL3    -0.270000       12.0110           0
      3262 MEMB     24       POPS     H16X     HAL3     0.900000E-01   1.00800           0
      3263 MEMB     24       POPS     H16Y     HAL3     0.900000E-01   1.00800           0
      3264 MEMB     24       POPS     H16Z     HAL3     0.900000E-01   1.00800           0
      3265 MEMB     25       POPC     N        NTL     -0.600000       14.0070           0
      3266 MEMB     25       POPC     C12      CTL2    -0.100000       12.0110           0
      3267 MEMB     25       POPC     H12A     HL       0.250000       1.00800           0
      3268 MEMB     25       POPC     H12B     HL       0.250000       1.00800           0
      3269 MEMB     25       POPC     C13      CTL5    -0.350000       12.0110           0
      3270 MEMB     25       POPC     H13A     HL       0.250000       1.00800           0
      3271 MEMB     25       POPC     H13B     HL       0.250000       1.00800           0
      3272 MEMB     25       POPC     H13C     HL       0.250000       1.00800           0
      3273 MEMB     25       POPC     C14      CTL5    -0.350000       12.0110           0
      3274 MEMB     25       POPC     H14A     HL       0.250000       1.00800           0
      3275 MEMB     25       POPC     H14B     HL       0.250000       1.00800           0
      3276 MEMB     25       POPC     H14C     HL       0.250000       1.00800           0
      3277 MEMB     25       POPC     C15      CTL5    -0.350000       12.0110           0
      3278 MEMB     25       POPC     H15A     HL       0.250000       1.00800           0
      3279 MEMB     25       POPC     H15B     HL       0.250000       1.00800           0
      3280 MEMB     25       POPC     H15C     HL       0.250000       1.00800           0
      3281 MEMB     25       POPC     C11      CTL2    -0.800000E-01   12.0110           0
      3282 MEMB     25       POPC     H11A     HAL2     0.900000E-01   1.00800           0
      3283 MEMB     25       POPC     H11B     HAL2     0.900000E-01   1.00800           0
      3284 MEMB     25       POPC     P        PL        1.50000       30.9740           0
      3285 MEMB     25       POPC     O13      O2L     -0.780000       15.9994           0
      3286 MEMB     25       POPC     O14      O2L     -0.780000       15.9994           0
      3287 MEMB     25       POPC     O12      OSLP    -0.570000       15.9994           0
      3288 MEMB     25       POPC     O11      OSLP    -0.570000       15.9994           0
      3289 MEMB     25       POPC     C1       CTL2    -0.800000E-01   12.0110           0
      3290 MEMB     25       POPC     HA       HAL2     0.900000E-01   1.00800           0
      3291 MEMB     25       POPC     HB       HAL2     0.900000E-01   1.00800           0
      3292 MEMB     25       POPC     C2       CTL1     0.170000       12.0110           0
      3293 MEMB     25       POPC     HS       HAL1     0.900000E-01   1.00800           0
      3294 MEMB     25       POPC     O21      OSL     -0.490000       15.9994           0
      3295 MEMB     25       POPC     C21      CL       0.900000       12.0110           0
      3296 MEMB     25       POPC     O22      OBL     -0.630000       15.9994           0
      3297 MEMB     25       POPC     C22      CTL2    -0.220000       12.0110           0
      3298 MEMB     25       POPC     H2R      HAL2     0.900000E-01   1.00800           0
      3299 MEMB     25       POPC     H2S      HAL2     0.900000E-01   1.00800           0
      3300 MEMB     25       POPC     C3       CTL2     0.800000E-01   12.0110           0
      3301 MEMB     25       POPC     HX       HAL2     0.900000E-01   1.00800           0
      3302 MEMB     25       POPC     HY       HAL2     0.900000E-01   1.00800           0
      3303 MEMB     25       POPC     O31      OSL     -0.490000       15.9994           0
      3304 MEMB     25       POPC     C31      CL       0.900000       12.0110           0
      3305 MEMB     25       POPC     O32      OBL     -0.630000       15.9994           0
      3306 MEMB     25       POPC     C32      CTL2    -0.220000       12.0110           0
      3307 MEMB     25       POPC     H2X      HAL2     0.900000E-01   1.00800           0
      3308 MEMB     25       POPC     H2Y      HAL2     0.900000E-01   1.00800           0
      3309 MEMB     25       POPC     C23      CTL2    -0.180000       12.0110           0
      3310 MEMB     25       POPC     H3R      HAL2     0.900000E-01   1.00800           0
      3311 MEMB     25       POPC     H3S      HAL2     0.900000E-01   1.00800           0
      3312 MEMB     25       POPC     C24      CTL2    -0.180000       12.0110           0
      3313 MEMB     25       POPC     H4R      HAL2     0.900000E-01   1.00800           0
      3314 MEMB     25       POPC     H4S      HAL2     0.900000E-01   1.00800           0
      3315 MEMB     25       POPC     C25      CTL2    -0.180000       12.0110           0
      3316 MEMB     25       POPC     H5R      HAL2     0.900000E-01   1.00800           0
      3317 MEMB     25       POPC     H5S      HAL2     0.900000E-01   1.00800           0
      3318 MEMB     25       POPC     C26      CTL2    -0.180000       12.0110           0
      3319 MEMB     25       POPC     H6R      HAL2     0.900000E-01   1.00800           0
      3320 MEMB     25       POPC     H6S      HAL2     0.900000E-01   1.00800           0
      3321 MEMB     25       POPC     C27      CTL2    -0.180000       12.0110           0
      3322 MEMB     25       POPC     H7R      HAL2     0.900000E-01   1.00800           0
      3323 MEMB     25       POPC     H7S      HAL2     0.900000E-01   1.00800           0
      3324 MEMB     25       POPC     C28      CTL2    -0.180000       12.0110           0
      3325 MEMB     25       POPC     H8R      HAL2     0.900000E-01   1.00800           0
      3326 MEMB     25       POPC     H8S      HAL2     0.900000E-01   1.00800           0
      3327 MEMB     25       POPC     C29      CEL1    -0.150000       12.0110           0
      3328 MEMB     25       POPC     H91      HEL1     0.150000       1.00800           0
      3329 MEMB     25       POPC     C210     CEL1    -0.150000       12.0110           0
      3330 MEMB     25       POPC     H101     HEL1     0.150000       1.00800           0
      3331 MEMB     25       POPC     C211     CTL2    -0.180000       12.0110           0
      3332 MEMB     25       POPC     H11R     HAL2     0.900000E-01   1.00800           0
      3333 MEMB     25       POPC     H11S     HAL2     0.900000E-01   1.00800           0
      3334 MEMB     25       POPC     C212     CTL2    -0.180000       12.0110           0
      3335 MEMB     25       POPC     H12R     HAL2     0.900000E-01   1.00800           0
      3336 MEMB     25       POPC     H12S     HAL2     0.900000E-01   1.00800           0
      3337 MEMB     25       POPC     C213     CTL2    -0.180000       12.0110           0
      3338 MEMB     25       POPC     H13R     HAL2     0.900000E-01   1.00800           0
      3339 MEMB     25       POPC     H13S     HAL2     0.900000E-01   1.00800           0
      3340 MEMB     25       POPC     C214     CTL2    -0.180000       12.0110           0
      3341 MEMB     25       POPC     H14R     HAL2     0.900000E-01   1.00800           0
      3342 MEMB     25       POPC     H14S     HAL2     0.900000E-01   1.00800           0
      3343 MEMB     25       POPC     C215     CTL2    -0.180000       12.0110           0
      3344 MEMB     25       POPC     H15R     HAL2     0.900000E-01   1.00800           0
      3345 MEMB     25       POPC     H15S     HAL2     0.900000E-01   1.00800           0
      3346 MEMB     25       POPC     C216     CTL2    -0.180000       12.0110           0
      3347 MEMB     25       POPC     H16R     HAL2     0.900000E-01   1.00800           0
      3348 MEMB     25       POPC     H16S     HAL2     0.900000E-01   1.00800           0
      3349 MEMB     25       POPC     C217     CTL2    -0.180000       12.0110           0
      3350 MEMB     25       POPC     H17R     HAL2     0.900000E-01   1.00800           0
      3351 MEMB     25       POPC     H17S     HAL2     0.900000E-01   1.00800           0
      3352 MEMB     25       POPC     C218     CTL3    -0.270000       12.0110           0
      3353 MEMB     25       POPC     H18R     HAL3     0.900000E-01   1.00800           0
      3354 MEMB     25       POPC     H18S     HAL3     0.900000E-01   1.00800           0
      3355 MEMB     25       POPC     H18T     HAL3     0.900000E-01   1.00800           0
      3356 MEMB     25       POPC     C33      CTL2    -0.180000       12.0110           0
      3357 MEMB     25       POPC     H3X      HAL2     0.900000E-01   1.00800           0
      3358 MEMB     25       POPC     H3Y      HAL2     0.900000E-01   1.00800           0
      3359 MEMB     25       POPC     C34      CTL2    -0.180000       12.0110           0
      3360 MEMB     25       POPC     H4X      HAL2     0.900000E-01   1.00800           0
      3361 MEMB     25       POPC     H4Y      HAL2     0.900000E-01   1.00800           0
      3362 MEMB     25       POPC     C35      CTL2    -0.180000       12.0110           0
      3363 MEMB     25       POPC     H5X      HAL2     0.900000E-01   1.00800           0
      3364 MEMB     25       POPC     H5Y      HAL2     0.900000E-01   1.00800           0
      3365 MEMB     25       POPC     C36      CTL2    -0.180000       12.0110           0
      3366 MEMB     25       POPC     H6X      HAL2     0.900000E-01   1.00800           0
      3367 MEMB     25       POPC     H6Y      HAL2     0.900000E-01   1.00800           0
      3368 MEMB     25       POPC     C37      CTL2    -0.180000       12.0110           0
      3369 MEMB     25       POPC     H7X      HAL2     0.900000E-01   1.00800           0
      3370 MEMB     25       POPC     H7Y      HAL2     0.900000E-01   1.00800           0
      3371 MEMB     25       POPC     C38      CTL2    -0.180000       12.0110           0
      3372 MEMB     25       POPC     H8X      HAL2     0.900000E-01   1.00800           0
      3373 MEMB     25       POPC     H8Y      HAL2     0.900000E-01   1.00800           0
      3374 MEMB     25       POPC     C39      CTL2    -0.180000       12.0110           0
      3375 MEMB     25       POPC     H9X      HAL2     0.900000E-01   1.00800           0
      3376 MEMB     25       POPC     H9Y      HAL2     0.900000E-01   1.00800           0
      3377 MEMB     25       POPC     C310     CTL2    -0.180000       12.0110           0
      3378 MEMB     25       POPC     H10X     HAL2     0.900000E-01   1.00800           0
      3379 MEMB     25       POPC     H10Y     HAL2     0.900000E-01   1.00800           0
      3380 MEMB     25       POPC     C311     CTL2    -0.180000       12.0110           0
      3381 MEMB     25       POPC     H11X     HAL2     0.900000E-01   1.00800           0
      3382 MEMB     25       POPC     H11Y     HAL2     0.900000E-01   1.00800           0
      3383 MEMB     25       POPC     C312     CTL2    -0.180000       12.0110           0
      3384 MEMB     25       POPC     H12X     HAL2     0.900000E-01   1.00800           0
      3385 MEMB     25       POPC     H12Y     HAL2     0.900000E-01   1.00800           0
      3386 MEMB     25       POPC     C313     CTL2    -0.180000       12.0110           0
      3387 MEMB     25       POPC     H13X     HAL2     0.900000E-01   1.00800           0
      3388 MEMB     25       POPC     H13Y     HAL2     0.900000E-01   1.00800           0
      3389 MEMB     25       POPC     C314     CTL2    -0.180000       12.0110           0
      3390 MEMB     25       POPC     H14X     HAL2     0.900000E-01   1.00800           0
      3391 MEMB     25       POPC     H14Y     HAL2     0.900000E-01   1.00800           0
      3392 MEMB     25       POPC     C315     CTL2    -0.180000       12.0110           0
      3393 MEMB     25       POPC     H15X     HAL2     0.900000E-01   1.00800           0
      3394 MEMB     25       POPC     H15Y     HAL2     0.900000E-01   1.00800           0
      3395 MEMB     25       POPC     C316     CTL3    -0.270000       12.0110           0
      3396 MEMB     25       POPC     H16X     HAL3     0.900000E-01   1.00800           0
      3397 MEMB     25       POPC     H16Y     HAL3     0.900000E-01   1.00800           0
      3398 MEMB     25       POPC     H16Z     HAL3     0.900000E-01   1.00800           0
      3399 MEMB     26       POPC     N        NTL     -0.600000       14.0070           0
      3400 MEMB     26       POPC     C12      CTL2    -0.100000       12.0110           0
      3401 MEMB     26       POPC     H12A     HL       0.250000       1.00800           0
      3402 MEMB     26       POPC     H12B     HL       0.250000       1.00800           0
      3403 MEMB     26       POPC     C13      CTL5    -0.350000       12.0110           0
      3404 MEMB     26       POPC     H13A     HL       0.250000       1.00800           0
      3405 MEMB     26       POPC     H13B     HL       0.250000       1.00800           0
      3406 MEMB     26       POPC     H13C     HL       0.250000       1.00800           0
      3407 MEMB     26       POPC     C14      CTL5    -0.350000       12.0110           0
      3408 MEMB     26       POPC     H14A     HL       0.250000       1.00800           0
      3409 MEMB     26       POPC     H14B     HL       0.250000       1.00800           0
      3410 MEMB     26       POPC     H14C     HL       0.250000       1.00800           0
      3411 MEMB     26       POPC     C15      CTL5    -0.350000       12.0110           0
      3412 MEMB     26       POPC     H15A     HL       0.250000       1.00800           0
      3413 MEMB     26       POPC     H15B     HL       0.250000       1.00800           0
      3414 MEMB     26       POPC     H15C     HL       0.250000       1.00800           0
      3415 MEMB     26       POPC     C11      CTL2    -0.800000E-01   12.0110           0
      3416 MEMB     26       POPC     H11A     HAL2     0.900000E-01   1.00800           0
      3417 MEMB     26       POPC     H11B     HAL2     0.900000E-01   1.00800           0
      3418 MEMB     26       POPC     P        PL        1.50000       30.9740           0
      3419 MEMB     26       POPC     O13      O2L     -0.780000       15.9994           0
      3420 MEMB     26       POPC     O14      O2L     -0.780000       15.9994           0
      3421 MEMB     26       POPC     O12      OSLP    -0.570000       15.9994           0
      3422 MEMB     26       POPC     O11      OSLP    -0.570000       15.9994           0
      3423 MEMB     26       POPC     C1       CTL2    -0.800000E-01   12.0110           0
      3424 MEMB     26       POPC     HA       HAL2     0.900000E-01   1.00800           0
      3425 MEMB     26       POPC     HB       HAL2     0.900000E-01   1.00800           0
      3426 MEMB     26       POPC     C2       CTL1     0.170000       12.0110           0
      3427 MEMB     26       POPC     HS       HAL1     0.900000E-01   1.00800           0
      3428 MEMB     26       POPC     O21      OSL     -0.490000       15.9994           0
      3429 MEMB     26       POPC     C21      CL       0.900000       12.0110           0
      3430 MEMB     26       POPC     O22      OBL     -0.630000       15.9994           0
      3431 MEMB     26       POPC     C22      CTL2    -0.220000       12.0110           0
      3432 MEMB     26       POPC     H2R      HAL2     0.900000E-01   1.00800           0
      3433 MEMB     26       POPC     H2S      HAL2     0.900000E-01   1.00800           0
      3434 MEMB     26       POPC     C3       CTL2     0.800000E-01   12.0110           0
      3435 MEMB     26       POPC     HX       HAL2     0.900000E-01   1.00800           0
      3436 MEMB     26       POPC     HY       HAL2     0.900000E-01   1.00800           0
      3437 MEMB     26       POPC     O31      OSL     -0.490000       15.9994           0
      3438 MEMB     26       POPC     C31      CL       0.900000       12.0110           0
      3439 MEMB     26       POPC     O32      OBL     -0.630000       15.9994           0
      3440 MEMB     26       POPC     C32      CTL2    -0.220000       12.0110           0
      3441 MEMB     26       POPC     H2X      HAL2     0.900000E-01   1.00800           0
      3442 MEMB     26       POPC     H2Y      HAL2     0.900000E-01   1.00800           0
      3443 MEMB     26       POPC     C23      CTL2    -0.180000       12.0110           0
      3444 MEMB     26       POPC     H3R      HAL2     0.900000E-01   1.00800           0
      3445 MEMB     26       POPC     H3S      HAL2     0.900000E-01   1.00800           0
      3446 MEMB     26       POPC     C24      CTL2    -0.180000       12.0110           0
      3447 MEMB     26       POPC     H4R      HAL2     0.900000E-01   1.00800           0
      3448 MEMB     26       POPC     H4S      HAL2     0.900000E-01   1.00800           0
      3449 MEMB     26       POPC     C25      CTL2    -0.180000       12.0110           0
      3450 MEMB     26       POPC     H5R      HAL2     0.900000E-01   1.00800           0
      3451 MEMB     26       POPC     H5S      HAL2     0.900000E-01   1.00800           0
      3452 MEMB     26       POPC     C26      CTL2    -0.180000       12.0110           0
      3453 MEMB     26       POPC     H6R      HAL2     0.900000E-01   1.00800           0
      3454 MEMB     26       POPC     H6S      HAL2     0.900000E-01   1.00800           0
      3455 MEMB     26       POPC     C27      CTL2    -0.180000       12.0110           0
      3456 MEMB     26       POPC     H7R      HAL2     0.900000E-01   1.00800           0
      3457 MEMB     26       POPC     H7S      HAL2     0.900000E-01   1.00800           0
      3458 MEMB     26       POPC     C28      CTL2    -0.180000       12.0110           0
      3459 MEMB     26       POPC     H8R      HAL2     0.900000E-01   1.00800           0
      3460 MEMB     26       POPC     H8S      HAL2     0.900000E-01   1.00800           0
      3461 MEMB     26       POPC     C29      CEL1    -0.150000       12.0110           0
      3462 MEMB     26       POPC     H91      HEL1     0.150000       1.00800           0
      3463 MEMB     26       POPC     C210     CEL1    -0.150000       12.0110           0
      3464 MEMB     26       POPC     H101     HEL1     0.150000       1.00800           0
      3465 MEMB     26       POPC     C211     CTL2    -0.180000       12.0110           0
      3466 MEMB     26       POPC     H11R     HAL2     0.900000E-01   1.00800           0
      3467 MEMB     26       POPC     H11S     HAL2     0.900000E-01   1.00800           0
      3468 MEMB     26       POPC     C212     CTL2    -0.180000       12.0110           0
      3469 MEMB     26       POPC     H12R     HAL2     0.900000E-01   1.00800           0
      3470 MEMB     26       POPC     H12S     HAL2     0.900000E-01   1.00800           0
      3471 MEMB     26       POPC     C213     CTL2    -0.180000       12.0110           0
      3472 MEMB     26       POPC     H13R     HAL2     0.900000E-01   1.00800           0
      3473 MEMB     26       POPC     H13S     HAL2     0.900000E-01   1.00800           0
      3474 MEMB     26       POPC     C214     CTL2    -0.180000       12.0110           0
      3475 MEMB     26       POPC     H14R     HAL2     0.900000E-01   1.00800           0
      3476 MEMB     26       POPC     H14S     HAL2     0.900000E-01   1.00800           0
      3477 MEMB     26       POPC     C215     CTL2    -0.180000       12.0110           0
      3478 MEMB     26       POPC     H15R     HAL2     0.900000E-01   1.00800           0
      3479 MEMB     26       POPC     H15S     HAL2     0.900000E-01   1.00800           0
      3480 MEMB     26       POPC     C216     CTL2    -0.180000       12.0110           0
      3481 MEMB     26       POPC     H16R     HAL2     0.900000E-01   1.00800           0
      3482 MEMB     26       POPC     H16S     HAL2     0.900000E-01   1.00800           0
      3483 MEMB     26       POPC     C217     CTL2    -0.180000       12.0110           0
      3484 MEMB     26       POPC     H17R     HAL2     0.900000E-01   1.00800           0
      3485 MEMB     26       POPC     H17S     HAL2     0.900000E-01   1.00800           0
      3486 MEMB     26       POPC     C218     CTL3    -0.270000       12.0110           0
      3487 MEMB     26       POPC     H18R     HAL3     0.900000E-01   1.00800           0
      3488 MEMB     26       POPC     H18S     HAL3     0.900000E-01   1.00800           0
      3489 MEMB     26       POPC     H18T     HAL3     0.900000E-01   1.00800           0
      3490 MEMB     26       POPC     C33      CTL2    -0.180000       12.0110           0
      3491 MEMB     26       POPC     H3X      HAL2     0.900000E-01   1.00800           0
      3492 MEMB     26       POPC     H3Y      HAL2     0.900000E-01   1.00800           0
      3493 MEMB     26       POPC     C34      CTL2    -0.180000       12.0110           0
      3494 MEMB     26       POPC     H4X      HAL2     0.900000E-01   1.00800           0
      3495 MEMB     26       POPC     H4Y      HAL2     0.900000E-01   1.00800           0
      3496 MEMB     26       POPC     C35      CTL2    -0.180000       12.0110           0
      3497 MEMB     26       POPC     H5X      HAL2     0.900000E-01   1.00800           0
      3498 MEMB     26       POPC     H5Y      HAL2     0.900000E-01   1.00800           0
      3499 MEMB     26       POPC     C36      CTL2    -0.180000       12.0110           0
      3500 MEMB     26       POPC     H6X      HAL2     0.900000E-01   1.00800           0
      3501 MEMB     26       POPC     H6Y      HAL2     0.900000E-01   1.00800           0
      3502 MEMB     26       POPC     C37      CTL2    -0.180000       12.0110           0
      3503 MEMB     26       POPC     H7X      HAL2     0.900000E-01   1.00800           0
      3504 MEMB     26       POPC     H7Y      HAL2     0.900000E-01   1.00800           0
      3505 MEMB     26       POPC     C38      CTL2    -0.180000       12.0110           0
      3506 MEMB     26       POPC     H8X      HAL2     0.900000E-01   1.00800           0
      3507 MEMB     26       POPC     H8Y      HAL2     0.900000E-01   1.00800           0
      3508 MEMB     26       POPC     C39      CTL2    -0.180000       12.0110           0
      3509 MEMB     26       POPC     H9X      HAL2     0.900000E-01   1.00800           0
      3510 MEMB     26       POPC     H9Y      HAL2     0.900000E-01   1.00800           0
      3511 MEMB     26       POPC     C310     CTL2    -0.180000       12.0110           0
      3512 MEMB     26       POPC     H10X     HAL2     0.900000E-01   1.00800           0
      3513 MEMB     26       POPC     H10Y     HAL2     0.900000E-01   1.00800           0
      3514 MEMB     26       POPC     C311     CTL2    -0.180000       12.0110           0
      3515 MEMB     26       POPC     H11X     HAL2     0.900000E-01   1.00800           0
      3516 MEMB     26       POPC     H11Y     HAL2     0.900000E-01   1.00800           0
      3517 MEMB     26       POPC     C312     CTL2    -0.180000       12.0110           0
      3518 MEMB     26       POPC     H12X     HAL2     0.900000E-01   1.00800           0
      3519 MEMB     26       POPC     H12Y     HAL2     0.900000E-01   1.00800           0
      3520 MEMB     26       POPC     C313     CTL2    -0.180000       12.0110           0
      3521 MEMB     26       POPC     H13X     HAL2     0.900000E-01   1.00800           0
      3522 MEMB     26       POPC     H13Y     HAL2     0.900000E-01   1.00800           0
      3523 MEMB     26       POPC     C314     CTL2    -0.180000       12.0110           0
      3524 MEMB     26       POPC     H14X     HAL2     0.900000E-01   1.00800           0
      3525 MEMB     26       POPC     H14Y     HAL2     0.900000E-01   1.00800           0
      3526 MEMB     26       POPC     C315     CTL2    -0.180000       12.0110           0
      3527 MEMB     26       POPC     H15X     HAL2     0.900000E-01   1.00800           0
      3528 MEMB     26       POPC     H15Y     HAL2     0.900000E-01   1.00800           0
      3529 MEMB     26       POPC     C316     CTL3    -0.270000       12.0110           0
      3530 MEMB     26       POPC     H16X     HAL3     0.900000E-01   1.00800           0
      3531 MEMB     26       POPC     H16Y     HAL3     0.900000E-01   1.00800           0
      3532 MEMB     26       POPC     H16Z     HAL3     0.900000E-01   1.00800           0
      3533 MEMB     27       POPC     N        NTL     -0.600000       14.0070           0
      3534 MEMB     27       POPC     C12      CTL2    -0.100000       12.0110           0
      3535 MEMB     27       POPC     H12A     HL       0.250000       1.00800           0
      3536 MEMB     27       POPC     H12B     HL       0.250000       1.00800           0
      3537 MEMB     27       POPC     C13      CTL5    -0.350000       12.0110           0
      3538 MEMB     27       POPC     H13A     HL       0.250000       1.00800           0
      3539 MEMB     27       POPC     H13B     HL       0.250000       1.00800           0
      3540 MEMB     27       POPC     H13C     HL       0.250000       1.00800           0
      3541 MEMB     27       POPC     C14      CTL5    -0.350000       12.0110           0
      3542 MEMB     27       POPC     H14A     HL       0.250000       1.00800           0
      3543 MEMB     27       POPC     H14B     HL       0.250000       1.00800           0
      3544 MEMB     27       POPC     H14C     HL       0.250000       1.00800           0
      3545 MEMB     27       POPC     C15      CTL5    -0.350000       12.0110           0
      3546 MEMB     27       POPC     H15A     HL       0.250000       1.00800           0
      3547 MEMB     27       POPC     H15B     HL       0.250000       1.00800           0
      3548 MEMB     27       POPC     H15C     HL       0.250000       1.00800           0
      3549 MEMB     27       POPC     C11      CTL2    -0.800000E-01   12.0110           0
      3550 MEMB     27       POPC     H11A     HAL2     0.900000E-01   1.00800           0
      3551 MEMB     27       POPC     H11B     HAL2     0.900000E-01   1.00800           0
      3552 MEMB     27       POPC     P        PL        1.50000       30.9740           0
      3553 MEMB     27       POPC     O13      O2L     -0.780000       15.9994           0
      3554 MEMB     27       POPC     O14      O2L     -0.780000       15.9994           0
      3555 MEMB     27       POPC     O12      OSLP    -0.570000       15.9994           0
      3556 MEMB     27       POPC     O11      OSLP    -0.570000       15.9994           0
      3557 MEMB     27       POPC     C1       CTL2    -0.800000E-01   12.0110           0
      3558 MEMB     27       POPC     HA       HAL2     0.900000E-01   1.00800           0
      3559 MEMB     27       POPC     HB       HAL2     0.900000E-01   1.00800           0
      3560 MEMB     27       POPC     C2       CTL1     0.170000       12.0110           0
      3561 MEMB     27       POPC     HS       HAL1     0.900000E-01   1.00800           0
      3562 MEMB     27       POPC     O21      OSL     -0.490000       15.9994           0
      3563 MEMB     27       POPC     C21      CL       0.900000       12.0110           0
      3564 MEMB     27       POPC     O22      OBL     -0.630000       15.9994           0
      3565 MEMB     27       POPC     C22      CTL2    -0.220000       12.0110           0
      3566 MEMB     27       POPC     H2R      HAL2     0.900000E-01   1.00800           0
      3567 MEMB     27       POPC     H2S      HAL2     0.900000E-01   1.00800           0
      3568 MEMB     27       POPC     C3       CTL2     0.800000E-01   12.0110           0
      3569 MEMB     27       POPC     HX       HAL2     0.900000E-01   1.00800           0
      3570 MEMB     27       POPC     HY       HAL2     0.900000E-01   1.00800           0
      3571 MEMB     27       POPC     O31      OSL     -0.490000       15.9994           0
      3572 MEMB     27       POPC     C31      CL       0.900000       12.0110           0
      3573 MEMB     27       POPC     O32      OBL     -0.630000       15.9994           0
      3574 MEMB     27       POPC     C32      CTL2    -0.220000       12.0110           0
      3575 MEMB     27       POPC     H2X      HAL2     0.900000E-01   1.00800           0
      3576 MEMB     27       POPC     H2Y      HAL2     0.900000E-01   1.00800           0
      3577 MEMB     27       POPC     C23      CTL2    -0.180000       12.0110           0
      3578 MEMB     27       POPC     H3R      HAL2     0.900000E-01   1.00800           0
      3579 MEMB     27       POPC     H3S      HAL2     0.900000E-01   1.00800           0
      3580 MEMB     27       POPC     C24      CTL2    -0.180000       12.0110           0
      3581 MEMB     27       POPC     H4R      HAL2     0.900000E-01   1.00800           0
      3582 MEMB     27       POPC     H4S      HAL2     0.900000E-01   1.00800           0
      3583 MEMB     27       POPC     C25      CTL2    -0.180000       12.0110           0
      3584 MEMB     27       POPC     H5R      HAL2     0.900000E-01   1.00800           0
      3585 MEMB     27       POPC     H5S      HAL2     0.900000E-01   1.00800           0
      3586 MEMB     27       POPC     C26      CTL2    -0.180000       12.0110           0
      3587 MEMB     27       POPC     H6R      HAL2     0.900000E-01   1.00800           0
      3588 MEMB     27       POPC     H6S      HAL2     0.900000E-01   1.00800           0
      3589 MEMB     27       POPC     C27      CTL2    -0.180000       12.0110           0
      3590 MEMB     27       POPC     H7R      HAL2     0.900000E-01   1.00800           0
      3591 MEMB     27       POPC     H7S      HAL2     0.900000E-01   1.00800           0
      3592 MEMB     27       POPC     C28      CTL2    -0.180000       12.0110           0
      3593 MEMB     27       POPC     H8R      HAL2     0.900000E-01   1.00800           0
      3594 MEMB     27       POPC     H8S      HAL2     0.900000E-01   1.00800           0
      3595 MEMB     27       POPC     C29      CEL1    -0.150000       12.0110           0
      3596 MEMB     27       POPC     H91      HEL1     0.150000       1.00800           0
      3597 MEMB     27       POPC     C210     CEL1    -0.150000       12.0110           0
      3598 MEMB     27       POPC     H101     HEL1     0.150000       1.00800           0
      3599 MEMB     27       POPC     C211     CTL2    -0.180000       12.0110           0
      3600 MEMB     27       POPC     H11R     HAL2     0.900000E-01   1.00800           0
      3601 MEMB     27       POPC     H11S     HAL2     0.900000E-01   1.00800           0
      3602 MEMB     27       POPC     C212     CTL2    -0.180000       12.0110           0
      3603 MEMB     27       POPC     H12R     HAL2     0.900000E-01   1.00800           0
      3604 MEMB     27       POPC     H12S     HAL2     0.900000E-01   1.00800           0
      3605 MEMB     27       POPC     C213     CTL2    -0.180000       12.0110           0
      3606 MEMB     27       POPC     H13R     HAL2     0.900000E-01   1.00800           0
      3607 MEMB     27       POPC     H13S     HAL2     0.900000E-01   1.00800           0
      3608 MEMB     27       POPC     C214     CTL2    -0.180000       12.0110           0
      3609 MEMB     27       POPC     H14R     HAL2     0.900000E-01   1.00800           0
      3610 MEMB     27       POPC     H14S     HAL2     0.900000E-01   1.00800           0
      3611 MEMB     27       POPC     C215     CTL2    -0.180000       12.0110           0
      3612 MEMB     27       POPC     H15R     HAL2     0.900000E-01   1.00800           0
      3613 MEMB     27       POPC     H15S     HAL2     0.900000E-01   1.00800           0
      3614 MEMB     27       POPC     C216     CTL2    -0.180000       12.0110           0
      3615 MEMB     27       POPC     H16R     HAL2     0.900000E-01   1.00800           0
      3616 MEMB     27       POPC     H16S     HAL2     0.900000E-01   1.00800           0
      3617 MEMB     27       POPC     C217     CTL2    -0.180000       12.0110           0
      3618 MEMB     27       POPC     H17R     HAL2     0.900000E-01   1.00800           0
      3619 MEMB     27       POPC     H17S     HAL2     0.900000E-01   1.00800           0
      3620 MEMB     27       POPC     C218     CTL3    -0.270000       12.0110           0
      3621 MEMB     27       POPC     H18R     HAL3     0.900000E-01   1.00800           0
      3622 MEMB     27       POPC     H18S     HAL3     0.900000E-01   1.00800           0
      3623 MEMB     27       POPC     H18T     HAL3     0.900000E-01   1.00800           0
      3624 MEMB     27       POPC     C33      CTL2    -0.180000       12.0110           0
      3625 MEMB     27       POPC     H3X      HAL2     0.900000E-01   1.00800           0
      3626 MEMB     27       POPC     H3Y      HAL2     0.900000E-01   1.00800           0
      3627 MEMB     27       POPC     C34      CTL2    -0.180000       12.0110           0
      3628 MEMB     27       POPC     H4X      HAL2     0.900000E-01   1.00800           0
      3629 MEMB     27       POPC     H4Y      HAL2     0.900000E-01   1.00800           0
      3630 MEMB     27       POPC     C35      CTL2    -0.180000       12.0110           0
      3631 MEMB     27       POPC     H5X      HAL2     0.900000E-01   1.00800           0
      3632 MEMB     27       POPC     H5Y      HAL2     0.900000E-01   1.00800           0
      3633 MEMB     27       POPC     C36      CTL2    -0.180000       12.0110           0
      3634 MEMB     27       POPC     H6X      HAL2     0.900000E-01   1.00800           0
      3635 MEMB     27       POPC     H6Y      HAL2     0.900000E-01   1.00800           0
      3636 MEMB     27       POPC     C37      CTL2    -0.180000       12.0110           0
      3637 MEMB     27       POPC     H7X      HAL2     0.900000E-01   1.00800           0
      3638 MEMB     27       POPC     H7Y      HAL2     0.900000E-01   1.00800           0
      3639 MEMB     27       POPC     C38      CTL2    -0.180000       12.0110           0
      3640 MEMB     27       POPC     H8X      HAL2     0.900000E-01   1.00800           0
      3641 MEMB     27       POPC     H8Y      HAL2     0.900000E-01   1.00800           0
      3642 MEMB     27       POPC     C39      CTL2    -0.180000       12.0110           0
      3643 MEMB     27       POPC     H9X      HAL2     0.900000E-01   1.00800           0
      3644 MEMB     27       POPC     H9Y      HAL2     0.900000E-01   1.00800           0
      3645 MEMB     27       POPC     C310     CTL2    -0.180000       12.0110           0
      3646 MEMB     27       POPC     H10X     HAL2     0.900000E-01   1.00800           0
      3647 MEMB     27       POPC     H10Y     HAL2     0.900000E-01   1.00800           0
      3648 MEMB     27       POPC     C311     CTL2    -0.180000       12.0110           0
      3649 MEMB     27       POPC     H11X     HAL2     0.900000E-01   1.00800           0
      3650 MEMB     27       POPC     H11Y     HAL2     0.900000E-01   1.00800           0
      3651 MEMB     27       POPC     C312     CTL2    -0.180000       12.0110           0
      3652 MEMB     27       POPC     H12X     HAL2     0.900000E-01   1.00800           0
      3653 MEMB     27       POPC     H12Y     HAL2     0.900000E-01   1.00800           0
      3654 MEMB     27       POPC     C313     CTL2    -0.180000       12.0110           0
      3655 MEMB     27       POPC     H13X     HAL2     0.900000E-01   1.00800           0
      3656 MEMB     27       POPC     H13Y     HAL2     0.900000E-01   1.00800           0
      3657 MEMB     27       POPC     C314     CTL2    -0.180000       12.0110           0
      3658 MEMB     27       POPC     H14X     HAL2     0.900000E-01   1.00800           0
      3659 MEMB     27       POPC     H14Y     HAL2     0.900000E-01   1.00800           0
      3660 MEMB     27       POPC     C315     CTL2    -0.180000       12.0110           0
      3661 MEMB     27       POPC     H15X     HAL2     0.900000E-01   1.00800           0
      3662 MEMB     27       POPC     H15Y     HAL2     0.900000E-01   1.00800           0
      3663 MEMB     27       POPC     C316     CTL3    -0.270000       12.0110           0
      3664 MEMB     27       POPC     H16X     HAL3     0.900000E-01   1.00800           0
      3665 MEMB     27       POPC     H16Y     HAL3     0.900000E-01   1.00800           0
      3666 MEMB     27       POPC     H16Z     HAL3     0.900000E-01   1.00800           0
      3667 MEMB     28       POPS     N        NH3L    -0.300000       14.0070           0
      3668 MEMB     28       POPS     HN1      HCL      0.330000       1.00800           0
      3669 MEMB     28       POPS     HN2      HCL      0.330000       1.00800           0
      3670 MEMB     28       POPS     HN3      HCL      0.330000       1.00800           0
      3671 MEMB     28       POPS     C12      CTL1     0.210000       12.0110           0
      3672 MEMB     28       POPS     H12A     HBL      0.100000       1.00800           0
      3673 MEMB     28       POPS     C13      CCL      0.340000       12.0110           0
      3674 MEMB     28       POPS     O13A     OCL     -0.670000       15.9994           0
      3675 MEMB     28       POPS     O13B     OCL     -0.670000       15.9994           0
      3676 MEMB     28       POPS     C11      CTL2    -0.800000E-01   12.0110           0
      3677 MEMB     28       POPS     H11A     HAL2     0.900000E-01   1.00800           0
      3678 MEMB     28       POPS     H11B     HAL2     0.900000E-01   1.00800           0
      3679 MEMB     28       POPS     P        PL        1.50000       30.9740           0
      3680 MEMB     28       POPS     O13      O2L     -0.780000       15.9994           0
      3681 MEMB     28       POPS     O14      O2L     -0.780000       15.9994           0
      3682 MEMB     28       POPS     O12      OSLP    -0.570000       15.9994           0
      3683 MEMB     28       POPS     O11      OSLP    -0.570000       15.9994           0
      3684 MEMB     28       POPS     C1       CTL2    -0.800000E-01   12.0110           0
      3685 MEMB     28       POPS     HA       HAL2     0.900000E-01   1.00800           0
      3686 MEMB     28       POPS     HB       HAL2     0.900000E-01   1.00800           0
      3687 MEMB     28       POPS     C2       CTL1     0.170000       12.0110           0
      3688 MEMB     28       POPS     HS       HAL1     0.900000E-01   1.00800           0
      3689 MEMB     28       POPS     O21      OSL     -0.490000       15.9994           0
      3690 MEMB     28       POPS     C21      CL       0.900000       12.0110           0
      3691 MEMB     28       POPS     O22      OBL     -0.630000       15.9994           0
      3692 MEMB     28       POPS     C22      CTL2    -0.220000       12.0110           0
      3693 MEMB     28       POPS     H2R      HAL2     0.900000E-01   1.00800           0
      3694 MEMB     28       POPS     H2S      HAL2     0.900000E-01   1.00800           0
      3695 MEMB     28       POPS     C3       CTL2     0.800000E-01   12.0110           0
      3696 MEMB     28       POPS     HX       HAL2     0.900000E-01   1.00800           0
      3697 MEMB     28       POPS     HY       HAL2     0.900000E-01   1.00800           0
      3698 MEMB     28       POPS     O31      OSL     -0.490000       15.9994           0
      3699 MEMB     28       POPS     C31      CL       0.900000       12.0110           0
      3700 MEMB     28       POPS     O32      OBL     -0.630000       15.9994           0
      3701 MEMB     28       POPS     C32      CTL2    -0.220000       12.0110           0
      3702 MEMB     28       POPS     H2X      HAL2     0.900000E-01   1.00800           0
      3703 MEMB     28       POPS     H2Y      HAL2     0.900000E-01   1.00800           0
      3704 MEMB     28       POPS     C23      CTL2    -0.180000       12.0110           0
      3705 MEMB     28       POPS     H3R      HAL2     0.900000E-01   1.00800           0
      3706 MEMB     28       POPS     H3S      HAL2     0.900000E-01   1.00800           0
      3707 MEMB     28       POPS     C24      CTL2    -0.180000       12.0110           0
      3708 MEMB     28       POPS     H4R      HAL2     0.900000E-01   1.00800           0
      3709 MEMB     28       POPS     H4S      HAL2     0.900000E-01   1.00800           0
      3710 MEMB     28       POPS     C25      CTL2    -0.180000       12.0110           0
      3711 MEMB     28       POPS     H5R      HAL2     0.900000E-01   1.00800           0
      3712 MEMB     28       POPS     H5S      HAL2     0.900000E-01   1.00800           0
      3713 MEMB     28       POPS     C26      CTL2    -0.180000       12.0110           0
      3714 MEMB     28       POPS     H6R      HAL2     0.900000E-01   1.00800           0
      3715 MEMB     28       POPS     H6S      HAL2     0.900000E-01   1.00800           0
      3716 MEMB     28       POPS     C27      CTL2    -0.180000       12.0110           0
      3717 MEMB     28       POPS     H7R      HAL2     0.900000E-01   1.00800           0
      3718 MEMB     28       POPS     H7S      HAL2     0.900000E-01   1.00800           0
      3719 MEMB     28       POPS     C28      CTL2    -0.180000       12.0110           0
      3720 MEMB     28       POPS     H8R      HAL2     0.900000E-01   1.00800           0
      3721 MEMB     28       POPS     H8S      HAL2     0.900000E-01   1.00800           0
      3722 MEMB     28       POPS     C29      CEL1    -0.150000       12.0110           0
      3723 MEMB     28       POPS     H91      HEL1     0.150000       1.00800           0
      3724 MEMB     28       POPS     C210     CEL1    -0.150000       12.0110           0
      3725 MEMB     28       POPS     H101     HEL1     0.150000       1.00800           0
      3726 MEMB     28       POPS     C211     CTL2    -0.180000       12.0110           0
      3727 MEMB     28       POPS     H11R     HAL2     0.900000E-01   1.00800           0
      3728 MEMB     28       POPS     H11S     HAL2     0.900000E-01   1.00800           0
      3729 MEMB     28       POPS     C212     CTL2    -0.180000       12.0110           0
      3730 MEMB     28       POPS     H12R     HAL2     0.900000E-01   1.00800           0
      3731 MEMB     28       POPS     H12S     HAL2     0.900000E-01   1.00800           0
      3732 MEMB     28       POPS     C213     CTL2    -0.180000       12.0110           0
      3733 MEMB     28       POPS     H13R     HAL2     0.900000E-01   1.00800           0
      3734 MEMB     28       POPS     H13S     HAL2     0.900000E-01   1.00800           0
      3735 MEMB     28       POPS     C214     CTL2    -0.180000       12.0110           0
      3736 MEMB     28       POPS     H14R     HAL2     0.900000E-01   1.00800           0
      3737 MEMB     28       POPS     H14S     HAL2     0.900000E-01   1.00800           0
      3738 MEMB     28       POPS     C215     CTL2    -0.180000       12.0110           0
      3739 MEMB     28       POPS     H15R     HAL2     0.900000E-01   1.00800           0
      3740 MEMB     28       POPS     H15S     HAL2     0.900000E-01   1.00800           0
      3741 MEMB     28       POPS     C216     CTL2    -0.180000       12.0110           0
      3742 MEMB     28       POPS     H16R     HAL2     0.900000E-01   1.00800           0
      3743 MEMB     28       POPS     H16S     HAL2     0.900000E-01   1.00800           0
      3744 MEMB     28       POPS     C217     CTL2    -0.180000       12.0110           0
      3745 MEMB     28       POPS     H17R     HAL2     0.900000E-01   1.00800           0
      3746 MEMB     28       POPS     H17S     HAL2     0.900000E-01   1.00800           0
      3747 MEMB     28       POPS     C218     CTL3    -0.270000       12.0110           0
      3748 MEMB     28       POPS     H18R     HAL3     0.900000E-01   1.00800           0
      3749 MEMB     28       POPS     H18S     HAL3     0.900000E-01   1.00800           0
      3750 MEMB     28       POPS     H18T     HAL3     0.900000E-01   1.00800           0
      3751 MEMB     28       POPS     C33      CTL2    -0.180000       12.0110           0
      3752 MEMB     28       POPS     H3X      HAL2     0.900000E-01   1.00800           0
      3753 MEMB     28       POPS     H3Y      HAL2     0.900000E-01   1.00800           0
      3754 MEMB     28       POPS     C34      CTL2    -0.180000       12.0110           0
      3755 MEMB     28       POPS     H4X      HAL2     0.900000E-01   1.00800           0
      3756 MEMB     28       POPS     H4Y      HAL2     0.900000E-01   1.00800           0
      3757 MEMB     28       POPS     C35      CTL2    -0.180000       12.0110           0
      3758 MEMB     28       POPS     H5X      HAL2     0.900000E-01   1.00800           0
      3759 MEMB     28       POPS     H5Y      HAL2     0.900000E-01   1.00800           0
      3760 MEMB     28       POPS     C36      CTL2    -0.180000       12.0110           0
      3761 MEMB     28       POPS     H6X      HAL2     0.900000E-01   1.00800           0
      3762 MEMB     28       POPS     H6Y      HAL2     0.900000E-01   1.00800           0
      3763 MEMB     28       POPS     C37      CTL2    -0.180000       12.0110           0
      3764 MEMB     28       POPS     H7X      HAL2     0.900000E-01   1.00800           0
      3765 MEMB     28       POPS     H7Y      HAL2     0.900000E-01   1.00800           0
      3766 MEMB     28       POPS     C38      CTL2    -0.180000       12.0110           0
      3767 MEMB     28       POPS     H8X      HAL2     0.900000E-01   1.00800           0
      3768 MEMB     28       POPS     H8Y      HAL2     0.900000E-01   1.00800           0
      3769 MEMB     28       POPS     C39      CTL2    -0.180000       12.0110           0
      3770 MEMB     28       POPS     H9X      HAL2     0.900000E-01   1.00800           0
      3771 MEMB     28       POPS     H9Y      HAL2     0.900000E-01   1.00800           0
      3772 MEMB     28       POPS     C310     CTL2    -0.180000       12.0110           0
      3773 MEMB     28       POPS     H10X     HAL2     0.900000E-01   1.00800           0
      3774 MEMB     28       POPS     H10Y     HAL2     0.900000E-01   1.00800           0
      3775 MEMB     28       POPS     C311     CTL2    -0.180000       12.0110           0
      3776 MEMB     28       POPS     H11X     HAL2     0.900000E-01   1.00800           0
      3777 MEMB     28       POPS     H11Y     HAL2     0.900000E-01   1.00800           0
      3778 MEMB     28       POPS     C312     CTL2    -0.180000       12.0110           0
      3779 MEMB     28       POPS     H12X     HAL2     0.900000E-01   1.00800           0
      3780 MEMB     28       POPS     H12Y     HAL2     0.900000E-01   1.00800           0
      3781 MEMB     28       POPS     C313     CTL2    -0.180000       12.0110           0
      3782 MEMB     28       POPS     H13X     HAL2     0.900000E-01   1.00800           0
      3783 MEMB     28       POPS     H13Y     HAL2     0.900000E-01   1.00800           0
      3784 MEMB     28       POPS     C314     CTL2    -0.180000       12.0110           0
      3785 MEMB     28       POPS     H14X     HAL2     0.900000E-01   1.00800           0
      3786 MEMB     28       POPS     H14Y     HAL2     0.900000E-01   1.00800           0
      3787 MEMB     28       POPS     C315     CTL2    -0.180000       12.0110           0
      3788 MEMB     28       POPS     H15X     HAL2     0.900000E-01   1.00800           0
      3789 MEMB     28       POPS     H15Y     HAL2     0.900000E-01   1.00800           0
      3790 MEMB     28       POPS     C316     CTL3    -0.270000       12.0110           0
      3791 MEMB     28       POPS     H16X     HAL3     0.900000E-01   1.00800           0
      3792 MEMB     28       POPS     H16Y     HAL3     0.900000E-01   1.00800           0
      3793 MEMB     28       POPS     H16Z     HAL3     0.900000E-01   1.00800           0
      3794 MEMB     29       POPC     N        NTL     -0.600000       14.0070           0
      3795 MEMB     29       POPC     C12      CTL2    -0.100000       12.0110           0
      3796 MEMB     29       POPC     H12A     HL       0.250000       1.00800           0
      3797 MEMB     29       POPC     H12B     HL       0.250000       1.00800           0
      3798 MEMB     29       POPC     C13      CTL5    -0.350000       12.0110           0
      3799 MEMB     29       POPC     H13A     HL       0.250000       1.00800           0
      3800 MEMB     29       POPC     H13B     HL       0.250000       1.00800           0
      3801 MEMB     29       POPC     H13C     HL       0.250000       1.00800           0
      3802 MEMB     29       POPC     C14      CTL5    -0.350000       12.0110           0
      3803 MEMB     29       POPC     H14A     HL       0.250000       1.00800           0
      3804 MEMB     29       POPC     H14B     HL       0.250000       1.00800           0
      3805 MEMB     29       POPC     H14C     HL       0.250000       1.00800           0
      3806 MEMB     29       POPC     C15      CTL5    -0.350000       12.0110           0
      3807 MEMB     29       POPC     H15A     HL       0.250000       1.00800           0
      3808 MEMB     29       POPC     H15B     HL       0.250000       1.00800           0
      3809 MEMB     29       POPC     H15C     HL       0.250000       1.00800           0
      3810 MEMB     29       POPC     C11      CTL2    -0.800000E-01   12.0110           0
      3811 MEMB     29       POPC     H11A     HAL2     0.900000E-01   1.00800           0
      3812 MEMB     29       POPC     H11B     HAL2     0.900000E-01   1.00800           0
      3813 MEMB     29       POPC     P        PL        1.50000       30.9740           0
      3814 MEMB     29       POPC     O13      O2L     -0.780000       15.9994           0
      3815 MEMB     29       POPC     O14      O2L     -0.780000       15.9994           0
      3816 MEMB     29       POPC     O12      OSLP    -0.570000       15.9994           0
      3817 MEMB     29       POPC     O11      OSLP    -0.570000       15.9994           0
      3818 MEMB     29       POPC     C1       CTL2    -0.800000E-01   12.0110           0
      3819 MEMB     29       POPC     HA       HAL2     0.900000E-01   1.00800           0
      3820 MEMB     29       POPC     HB       HAL2     0.900000E-01   1.00800           0
      3821 MEMB     29       POPC     C2       CTL1     0.170000       12.0110           0
      3822 MEMB     29       POPC     HS       HAL1     0.900000E-01   1.00800           0
      3823 MEMB     29       POPC     O21      OSL     -0.490000       15.9994           0
      3824 MEMB     29       POPC     C21      CL       0.900000       12.0110           0
      3825 MEMB     29       POPC     O22      OBL     -0.630000       15.9994           0
      3826 MEMB     29       POPC     C22      CTL2    -0.220000       12.0110           0
      3827 MEMB     29       POPC     H2R      HAL2     0.900000E-01   1.00800           0
      3828 MEMB     29       POPC     H2S      HAL2     0.900000E-01   1.00800           0
      3829 MEMB     29       POPC     C3       CTL2     0.800000E-01   12.0110           0
      3830 MEMB     29       POPC     HX       HAL2     0.900000E-01   1.00800           0
      3831 MEMB     29       POPC     HY       HAL2     0.900000E-01   1.00800           0
      3832 MEMB     29       POPC     O31      OSL     -0.490000       15.9994           0
      3833 MEMB     29       POPC     C31      CL       0.900000       12.0110           0
      3834 MEMB     29       POPC     O32      OBL     -0.630000       15.9994           0
      3835 MEMB     29       POPC     C32      CTL2    -0.220000       12.0110           0
      3836 MEMB     29       POPC     H2X      HAL2     0.900000E-01   1.00800           0
      3837 MEMB     29       POPC     H2Y      HAL2     0.900000E-01   1.00800           0
      3838 MEMB     29       POPC     C23      CTL2    -0.180000       12.0110           0
      3839 MEMB     29       POPC     H3R      HAL2     0.900000E-01   1.00800           0
      3840 MEMB     29       POPC     H3S      HAL2     0.900000E-01   1.00800           0
      3841 MEMB     29       POPC     C24      CTL2    -0.180000       12.0110           0
      3842 MEMB     29       POPC     H4R      HAL2     0.900000E-01   1.00800           0
      3843 MEMB     29       POPC     H4S      HAL2     0.900000E-01   1.00800           0
      3844 MEMB     29       POPC     C25      CTL2    -0.180000       12.0110           0
      3845 MEMB     29       POPC     H5R      HAL2     0.900000E-01   1.00800           0
      3846 MEMB     29       POPC     H5S      HAL2     0.900000E-01   1.00800           0
      3847 MEMB     29       POPC     C26      CTL2    -0.180000       12.0110           0
      3848 MEMB     29       POPC     H6R      HAL2     0.900000E-01   1.00800           0
      3849 MEMB     29       POPC     H6S      HAL2     0.900000E-01   1.00800           0
      3850 MEMB     29       POPC     C27      CTL2    -0.180000       12.0110           0
      3851 MEMB     29       POPC     H7R      HAL2     0.900000E-01   1.00800           0
      3852 MEMB     29       POPC     H7S      HAL2     0.900000E-01   1.00800           0
      3853 MEMB     29       POPC     C28      CTL2    -0.180000       12.0110           0
      3854 MEMB     29       POPC     H8R      HAL2     0.900000E-01   1.00800           0
      3855 MEMB     29       POPC     H8S      HAL2     0.900000E-01   1.00800           0
      3856 MEMB     29       POPC     C29      CEL1    -0.150000       12.0110           0
      3857 MEMB     29       POPC     H91      HEL1     0.150000       1.00800           0
      3858 MEMB     29       POPC     C210     CEL1    -0.150000       12.0110           0
      3859 MEMB     29       POPC     H101     HEL1     0.150000       1.00800           0
      3860 MEMB     29       POPC     C211     CTL2    -0.180000       12.0110           0
      3861 MEMB     29       POPC     H11R     HAL2     0.900000E-01   1.00800           0
      3862 MEMB     29       POPC     H11S     HAL2     0.900000E-01   1.00800           0
      3863 MEMB     29       POPC     C212     CTL2    -0.180000       12.0110           0
      3864 MEMB     29       POPC     H12R     HAL2     0.900000E-01   1.00800           0
      3865 MEMB     29       POPC     H12S     HAL2     0.900000E-01   1.00800           0
      3866 MEMB     29       POPC     C213     CTL2    -0.180000       12.0110           0
      3867 MEMB     29       POPC     H13R     HAL2     0.900000E-01   1.00800           0
      3868 MEMB     29       POPC     H13S     HAL2     0.900000E-01   1.00800           0
      3869 MEMB     29       POPC     C214     CTL2    -0.180000       12.0110           0
      3870 MEMB     29       POPC     H14R     HAL2     0.900000E-01   1.00800           0
      3871 MEMB     29       POPC     H14S     HAL2     0.900000E-01   1.00800           0
      3872 MEMB     29       POPC     C215     CTL2    -0.180000       12.0110           0
      3873 MEMB     29       POPC     H15R     HAL2     0.900000E-01   1.00800           0
      3874 MEMB     29       POPC     H15S     HAL2     0.900000E-01   1.00800           0
      3875 MEMB     29       POPC     C216     CTL2    -0.180000       12.0110           0
      3876 MEMB     29       POPC     H16R     HAL2     0.900000E-01   1.00800           0
      3877 MEMB     29       POPC     H16S     HAL2     0.900000E-01   1.00800           0
      3878 MEMB     29       POPC     C217     CTL2    -0.180000       12.0110           0
      3879 MEMB     29       POPC     H17R     HAL2     0.900000E-01   1.00800           0
      3880 MEMB     29       POPC     H17S     HAL2     0.900000E-01   1.00800           0
      3881 MEMB     29       POPC     C218     CTL3    -0.270000       12.0110           0
      3882 MEMB     29       POPC     H18R     HAL3     0.900000E-01   1.00800           0
      3883 MEMB     29       POPC     H18S     HAL3     0.900000E-01   1.00800           0
      3884 MEMB     29       POPC     H18T     HAL3     0.900000E-01   1.00800           0
      3885 MEMB     29       POPC     C33      CTL2    -0.180000       12.0110           0
      3886 MEMB     29       POPC     H3X      HAL2     0.900000E-01   1.00800           0
      3887 MEMB     29       POPC     H3Y      HAL2     0.900000E-01   1.00800           0
      3888 MEMB     29       POPC     C34      CTL2    -0.180000       12.0110           0
      3889 MEMB     29       POPC     H4X      HAL2     0.900000E-01   1.00800           0
      3890 MEMB     29       POPC     H4Y      HAL2     0.900000E-01   1.00800           0
      3891 MEMB     29       POPC     C35      CTL2    -0.180000       12.0110           0
      3892 MEMB     29       POPC     H5X      HAL2     0.900000E-01   1.00800           0
      3893 MEMB     29       POPC     H5Y      HAL2     0.900000E-01   1.00800           0
      3894 MEMB     29       POPC     C36      CTL2    -0.180000       12.0110           0
      3895 MEMB     29       POPC     H6X      HAL2     0.900000E-01   1.00800           0
      3896 MEMB     29       POPC     H6Y      HAL2     0.900000E-01   1.00800           0
      3897 MEMB     29       POPC     C37      CTL2    -0.180000       12.0110           0
      3898 MEMB     29       POPC     H7X      HAL2     0.900000E-01   1.00800           0
      3899 MEMB     29       POPC     H7Y      HAL2     0.900000E-01   1.00800           0
      3900 MEMB     29       POPC     C38      CTL2    -0.180000       12.0110           0
      3901 MEMB     29       POPC     H8X      HAL2     0.900000E-01   1.00800           0
      3902 MEMB     29       POPC     H8Y      HAL2     0.900000E-01   1.00800           0
      3903 MEMB     29       POPC     C39      CTL2    -0.180000       12.0110           0
      3904 MEMB     29       POPC     H9X      HAL2     0.900000E-01   1.00800           0
      3905 MEMB     29       POPC     H9Y      HAL2     0.900000E-01   1.00800           0
      3906 MEMB     29       POPC     C310     CTL2    -0.180000       12.0110           0
      3907 MEMB     29       POPC     H10X     HAL2     0.900000E-01   1.00800           0
      3908 MEMB     29       POPC     H10Y     HAL2     0.900000E-01   1.00800           0
      3909 MEMB     29       POPC     C311     CTL2    -0.180000       12.0110           0
      3910 MEMB     29       POPC     H11X     HAL2     0.900000E-01   1.00800           0
      3911 MEMB     29       POPC     H11Y     HAL2     0.900000E-01   1.00800           0
      3912 MEMB     29       POPC     C312     CTL2    -0.180000       12.0110           0
      3913 MEMB     29       POPC     H12X     HAL2     0.900000E-01   1.00800           0
      3914 MEMB     29       POPC     H12Y     HAL2     0.900000E-01   1.00800           0
      3915 MEMB     29       POPC     C313     CTL2    -0.180000       12.0110           0
      3916 MEMB     29       POPC     H13X     HAL2     0.900000E-01   1.00800           0
      3917 MEMB     29       POPC     H13Y     HAL2     0.900000E-01   1.00800           0
      3918 MEMB     29       POPC     C314     CTL2    -0.180000       12.0110           0
      3919 MEMB     29       POPC     H14X     HAL2     0.900000E-01   1.00800           0
      3920 MEMB     29       POPC     H14Y     HAL2     0.900000E-01   1.00800           0
      3921 MEMB     29       POPC     C315     CTL2    -0.180000       12.0110           0
      3922 MEMB     29       POPC     H15X     HAL2     0.900000E-01   1.00800           0
      3923 MEMB     29       POPC     H15Y     HAL2     0.900000E-01   1.00800           0
      3924 MEMB     29       POPC     C316     CTL3    -0.270000       12.0110           0
      3925 MEMB     29       POPC     H16X     HAL3     0.900000E-01   1.00800           0
      3926 MEMB     29       POPC     H16Y     HAL3     0.900000E-01   1.00800           0
      3927 MEMB     29       POPC     H16Z     HAL3     0.900000E-01   1.00800           0
      3928 MEMB     30       POPC     N        NTL     -0.600000       14.0070           0
      3929 MEMB     30       POPC     C12      CTL2    -0.100000       12.0110           0
      3930 MEMB     30       POPC     H12A     HL       0.250000       1.00800           0
      3931 MEMB     30       POPC     H12B     HL       0.250000       1.00800           0
      3932 MEMB     30       POPC     C13      CTL5    -0.350000       12.0110           0
      3933 MEMB     30       POPC     H13A     HL       0.250000       1.00800           0
      3934 MEMB     30       POPC     H13B     HL       0.250000       1.00800           0
      3935 MEMB     30       POPC     H13C     HL       0.250000       1.00800           0
      3936 MEMB     30       POPC     C14      CTL5    -0.350000       12.0110           0
      3937 MEMB     30       POPC     H14A     HL       0.250000       1.00800           0
      3938 MEMB     30       POPC     H14B     HL       0.250000       1.00800           0
      3939 MEMB     30       POPC     H14C     HL       0.250000       1.00800           0
      3940 MEMB     30       POPC     C15      CTL5    -0.350000       12.0110           0
      3941 MEMB     30       POPC     H15A     HL       0.250000       1.00800           0
      3942 MEMB     30       POPC     H15B     HL       0.250000       1.00800           0
      3943 MEMB     30       POPC     H15C     HL       0.250000       1.00800           0
      3944 MEMB     30       POPC     C11      CTL2    -0.800000E-01   12.0110           0
      3945 MEMB     30       POPC     H11A     HAL2     0.900000E-01   1.00800           0
      3946 MEMB     30       POPC     H11B     HAL2     0.900000E-01   1.00800           0
      3947 MEMB     30       POPC     P        PL        1.50000       30.9740           0
      3948 MEMB     30       POPC     O13      O2L     -0.780000       15.9994           0
      3949 MEMB     30       POPC     O14      O2L     -0.780000       15.9994           0
      3950 MEMB     30       POPC     O12      OSLP    -0.570000       15.9994           0
      3951 MEMB     30       POPC     O11      OSLP    -0.570000       15.9994           0
      3952 MEMB     30       POPC     C1       CTL2    -0.800000E-01   12.0110           0
      3953 MEMB     30       POPC     HA       HAL2     0.900000E-01   1.00800           0
      3954 MEMB     30       POPC     HB       HAL2     0.900000E-01   1.00800           0
      3955 MEMB     30       POPC     C2       CTL1     0.170000       12.0110           0
      3956 MEMB     30       POPC     HS       HAL1     0.900000E-01   1.00800           0
      3957 MEMB     30       POPC     O21      OSL     -0.490000       15.9994           0
      3958 MEMB     30       POPC     C21      CL       0.900000       12.0110           0
      3959 MEMB     30       POPC     O22      OBL     -0.630000       15.9994           0
      3960 MEMB     30       POPC     C22      CTL2    -0.220000       12.0110           0
      3961 MEMB     30       POPC     H2R      HAL2     0.900000E-01   1.00800           0
      3962 MEMB     30       POPC     H2S      HAL2     0.900000E-01   1.00800           0
      3963 MEMB     30       POPC     C3       CTL2     0.800000E-01   12.0110           0
      3964 MEMB     30       POPC     HX       HAL2     0.900000E-01   1.00800           0
      3965 MEMB     30       POPC     HY       HAL2     0.900000E-01   1.00800           0
      3966 MEMB     30       POPC     O31      OSL     -0.490000       15.9994           0
      3967 MEMB     30       POPC     C31      CL       0.900000       12.0110           0
      3968 MEMB     30       POPC     O32      OBL     -0.630000       15.9994           0
      3969 MEMB     30       POPC     C32      CTL2    -0.220000       12.0110           0
      3970 MEMB     30       POPC     H2X      HAL2     0.900000E-01   1.00800           0
      3971 MEMB     30       POPC     H2Y      HAL2     0.900000E-01   1.00800           0
      3972 MEMB     30       POPC     C23      CTL2    -0.180000       12.0110           0
      3973 MEMB     30       POPC     H3R      HAL2     0.900000E-01   1.00800           0
      3974 MEMB     30       POPC     H3S      HAL2     0.900000E-01   1.00800           0
      3975 MEMB     30       POPC     C24      CTL2    -0.180000       12.0110           0
      3976 MEMB     30       POPC     H4R      HAL2     0.900000E-01   1.00800           0
      3977 MEMB     30       POPC     H4S      HAL2     0.900000E-01   1.00800           0
      3978 MEMB     30       POPC     C25      CTL2    -0.180000       12.0110           0
      3979 MEMB     30       POPC     H5R      HAL2     0.900000E-01   1.00800           0
      3980 MEMB     30       POPC     H5S      HAL2     0.900000E-01   1.00800           0
      3981 MEMB     30       POPC     C26      CTL2    -0.180000       12.0110           0
      3982 MEMB     30       POPC     H6R      HAL2     0.900000E-01   1.00800           0
      3983 MEMB     30       POPC     H6S      HAL2     0.900000E-01   1.00800           0
      3984 MEMB     30       POPC     C27      CTL2    -0.180000       12.0110           0
      3985 MEMB     30       POPC     H7R      HAL2     0.900000E-01   1.00800           0
      3986 MEMB     30       POPC     H7S      HAL2     0.900000E-01   1.00800           0
      3987 MEMB     30       POPC     C28      CTL2    -0.180000       12.0110           0
      3988 MEMB     30       POPC     H8R      HAL2     0.900000E-01   1.00800           0
      3989 MEMB     30       POPC     H8S      HAL2     0.900000E-01   1.00800           0
      3990 MEMB     30       POPC     C29      CEL1    -0.150000       12.0110           0
      3991 MEMB     30       POPC     H91      HEL1     0.150000       1.00800           0
      3992 MEMB     30       POPC     C210     CEL1    -0.150000       12.0110           0
      3993 MEMB     30       POPC     H101     HEL1     0.150000       1.00800           0
      3994 MEMB     30       POPC     C211     CTL2    -0.180000       12.0110           0
      3995 MEMB     30       POPC     H11R     HAL2     0.900000E-01   1.00800           0
      3996 MEMB     30       POPC     H11S     HAL2     0.900000E-01   1.00800           0
      3997 MEMB     30       POPC     C212     CTL2    -0.180000       12.0110           0
      3998 MEMB     30       POPC     H12R     HAL2     0.900000E-01   1.00800           0
      3999 MEMB     30       POPC     H12S     HAL2     0.900000E-01   1.00800           0
      4000 MEMB     30       POPC     C213     CTL2    -0.180000       12.0110           0
      4001 MEMB     30       POPC     H13R     HAL2     0.900000E-01   1.00800           0
      4002 MEMB     30       POPC     H13S     HAL2     0.900000E-01   1.00800           0
      4003 MEMB     30       POPC     C214     CTL2    -0.180000       12.0110           0
      4004 MEMB     30       POPC     H14R     HAL2     0.900000E-01   1.00800           0
      4005 MEMB     30       POPC     H14S     HAL2     0.900000E-01   1.00800           0
      4006 MEMB     30       POPC     C215     CTL2    -0.180000       12.0110           0
      4007 MEMB     30       POPC     H15R     HAL2     0.900000E-01   1.00800           0
      4008 MEMB     30       POPC     H15S     HAL2     0.900000E-01   1.00800           0
      4009 MEMB     30       POPC     C216     CTL2    -0.180000       12.0110           0
      4010 MEMB     30       POPC     H16R     HAL2     0.900000E-01   1.00800           0
      4011 MEMB     30       POPC     H16S     HAL2     0.900000E-01   1.00800           0
      4012 MEMB     30       POPC     C217     CTL2    -0.180000       12.0110           0
      4013 MEMB     30       POPC     H17R     HAL2     0.900000E-01   1.00800           0
      4014 MEMB     30       POPC     H17S     HAL2     0.900000E-01   1.00800           0
      4015 MEMB     30       POPC     C218     CTL3    -0.270000       12.0110           0
      4016 MEMB     30       POPC     H18R     HAL3     0.900000E-01   1.00800           0
      4017 MEMB     30       POPC     H18S     HAL3     0.900000E-01   1.00800           0
      4018 MEMB     30       POPC     H18T     HAL3     0.900000E-01   1.00800           0
      4019 MEMB     30       POPC     C33      CTL2    -0.180000       12.0110           0
      4020 MEMB     30       POPC     H3X      HAL2     0.900000E-01   1.00800           0
      4021 MEMB     30       POPC     H3Y      HAL2     0.900000E-01   1.00800           0
      4022 MEMB     30       POPC     C34      CTL2    -0.180000       12.0110           0
      4023 MEMB     30       POPC     H4X      HAL2     0.900000E-01   1.00800           0
      4024 MEMB     30       POPC     H4Y      HAL2     0.900000E-01   1.00800           0
      4025 MEMB     30       POPC     C35      CTL2    -0.180000       12.0110           0
      4026 MEMB     30       POPC     H5X      HAL2     0.900000E-01   1.00800           0
      4027 MEMB     30       POPC     H5Y      HAL2     0.900000E-01   1.00800           0
      4028 MEMB     30       POPC     C36      CTL2    -0.180000       12.0110           0
      4029 MEMB     30       POPC     H6X      HAL2     0.900000E-01   1.00800           0
      4030 MEMB     30       POPC     H6Y      HAL2     0.900000E-01   1.00800           0
      4031 MEMB     30       POPC     C37      CTL2    -0.180000       12.0110           0
      4032 MEMB     30       POPC     H7X      HAL2     0.900000E-01   1.00800           0
      4033 MEMB     30       POPC     H7Y      HAL2     0.900000E-01   1.00800           0
      4034 MEMB     30       POPC     C38      CTL2    -0.180000       12.0110           0
      4035 MEMB     30       POPC     H8X      HAL2     0.900000E-01   1.00800           0
      4036 MEMB     30       POPC     H8Y      HAL2     0.900000E-01   1.00800           0
      4037 MEMB     30       POPC     C39      CTL2    -0.180000       12.0110           0
      4038 MEMB     30       POPC     H9X      HAL2     0.900000E-01   1.00800           0
      4039 MEMB     30       POPC     H9Y      HAL2     0.900000E-01   1.00800           0
      4040 MEMB     30       POPC     C310     CTL2    -0.180000       12.0110           0
      4041 MEMB     30       POPC     H10X     HAL2     0.900000E-01   1.00800           0
      4042 MEMB     30       POPC     H10Y     HAL2     0.900000E-01   1.00800           0
      4043 MEMB     30       POPC     C311     CTL2    -0.180000       12.0110           0
      4044 MEMB     30       POPC     H11X     HAL2     0.900000E-01   1.00800           0
      4045 MEMB     30       POPC     H11Y     HAL2     0.900000E-01   1.00800           0
      4046 MEMB     30       POPC     C312     CTL2    -0.180000       12.0110           0
      4047 MEMB     30       POPC     H12X     HAL2     0.900000E-01   1.00800           0
      4048 MEMB     30       POPC     H12Y     HAL2     0.900000E-01   1.00800           0
      4049 MEMB     30       POPC     C313     CTL2    -0.180000       12.0110           0
      4050 MEMB     30       POPC     H13X     HAL2     0.900000E-01   1.00800           0
      4051 MEMB     30       POPC     H13Y     HAL2     0.900000E-01   1.00800           0
      4052 MEMB     30       POPC     C314     CTL2    -0.180000       12.0110           0
      4053 MEMB     30       POPC     H14X     HAL2     0.900000E-01   1.00800           0
      4054 MEMB     30       POPC     H14Y     HAL2     0.900000E-01   1.00800           0
      4055 MEMB     30       POPC     C315     CTL2    -0.180000       12.0110           0
      4056 MEMB     30       POPC     H15X     HAL2     0.900000E-01   1.00800           0
      4057 MEMB     30       POPC     H15Y     HAL2     0.900000E-01   1.00800           0
      4058 MEMB     30       POPC     C316     CTL3    -0.270000       12.0110           0
      4059 MEMB     30       POPC     H16X     HAL3     0.900000E-01   1.00800           0
      4060 MEMB     30       POPC     H16Y     HAL3     0.900000E-01   1.00800           0
      4061 MEMB     30       POPC     H16Z     HAL3     0.900000E-01   1.00800           0
      4062 MEMB     31       POPS     N        NH3L    -0.300000       14.0070           0
      4063 MEMB     31       POPS     HN1      HCL      0.330000       1.00800           0
      4064 MEMB     31       POPS     HN2      HCL      0.330000       1.00800           0
      4065 MEMB     31       POPS     HN3      HCL      0.330000       1.00800           0
      4066 MEMB     31       POPS     C12      CTL1     0.210000       12.0110           0
      4067 MEMB     31       POPS     H12A     HBL      0.100000       1.00800           0
      4068 MEMB     31       POPS     C13      CCL      0.340000       12.0110           0
      4069 MEMB     31       POPS     O13A     OCL     -0.670000       15.9994           0
      4070 MEMB     31       POPS     O13B     OCL     -0.670000       15.9994           0
      4071 MEMB     31       POPS     C11      CTL2    -0.800000E-01   12.0110           0
      4072 MEMB     31       POPS     H11A     HAL2     0.900000E-01   1.00800           0
      4073 MEMB     31       POPS     H11B     HAL2     0.900000E-01   1.00800           0
      4074 MEMB     31       POPS     P        PL        1.50000       30.9740           0
      4075 MEMB     31       POPS     O13      O2L     -0.780000       15.9994           0
      4076 MEMB     31       POPS     O14      O2L     -0.780000       15.9994           0
      4077 MEMB     31       POPS     O12      OSLP    -0.570000       15.9994           0
      4078 MEMB     31       POPS     O11      OSLP    -0.570000       15.9994           0
      4079 MEMB     31       POPS     C1       CTL2    -0.800000E-01   12.0110           0
      4080 MEMB     31       POPS     HA       HAL2     0.900000E-01   1.00800           0
      4081 MEMB     31       POPS     HB       HAL2     0.900000E-01   1.00800           0
      4082 MEMB     31       POPS     C2       CTL1     0.170000       12.0110           0
      4083 MEMB     31       POPS     HS       HAL1     0.900000E-01   1.00800           0
      4084 MEMB     31       POPS     O21      OSL     -0.490000       15.9994           0
      4085 MEMB     31       POPS     C21      CL       0.900000       12.0110           0
      4086 MEMB     31       POPS     O22      OBL     -0.630000       15.9994           0
      4087 MEMB     31       POPS     C22      CTL2    -0.220000       12.0110           0
      4088 MEMB     31       POPS     H2R      HAL2     0.900000E-01   1.00800           0
      4089 MEMB     31       POPS     H2S      HAL2     0.900000E-01   1.00800           0
      4090 MEMB     31       POPS     C3       CTL2     0.800000E-01   12.0110           0
      4091 MEMB     31       POPS     HX       HAL2     0.900000E-01   1.00800           0
      4092 MEMB     31       POPS     HY       HAL2     0.900000E-01   1.00800           0
      4093 MEMB     31       POPS     O31      OSL     -0.490000       15.9994           0
      4094 MEMB     31       POPS     C31      CL       0.900000       12.0110           0
      4095 MEMB     31       POPS     O32      OBL     -0.630000       15.9994           0
      4096 MEMB     31       POPS     C32      CTL2    -0.220000       12.0110           0
      4097 MEMB     31       POPS     H2X      HAL2     0.900000E-01   1.00800           0
      4098 MEMB     31       POPS     H2Y      HAL2     0.900000E-01   1.00800           0
      4099 MEMB     31       POPS     C23      CTL2    -0.180000       12.0110           0
      4100 MEMB     31       POPS     H3R      HAL2     0.900000E-01   1.00800           0
      4101 MEMB     31       POPS     H3S      HAL2     0.900000E-01   1.00800           0
      4102 MEMB     31       POPS     C24      CTL2    -0.180000       12.0110           0
      4103 MEMB     31       POPS     H4R      HAL2     0.900000E-01   1.00800           0
      4104 MEMB     31       POPS     H4S      HAL2     0.900000E-01   1.00800           0
      4105 MEMB     31       POPS     C25      CTL2    -0.180000       12.0110           0
      4106 MEMB     31       POPS     H5R      HAL2     0.900000E-01   1.00800           0
      4107 MEMB     31       POPS     H5S      HAL2     0.900000E-01   1.00800           0
      4108 MEMB     31       POPS     C26      CTL2    -0.180000       12.0110           0
      4109 MEMB     31       POPS     H6R      HAL2     0.900000E-01   1.00800           0
      4110 MEMB     31       POPS     H6S      HAL2     0.900000E-01   1.00800           0
      4111 MEMB     31       POPS     C27      CTL2    -0.180000       12.0110           0
      4112 MEMB     31       POPS     H7R      HAL2     0.900000E-01   1.00800           0
      4113 MEMB     31       POPS     H7S      HAL2     0.900000E-01   1.00800           0
      4114 MEMB     31       POPS     C28      CTL2    -0.180000       12.0110           0
      4115 MEMB     31       POPS     H8R      HAL2     0.900000E-01   1.00800           0
      4116 MEMB     31       POPS     H8S      HAL2     0.900000E-01   1.00800           0
      4117 MEMB     31       POPS     C29      CEL1    -0.150000       12.0110           0
      4118 MEMB     31       POPS     H91      HEL1     0.150000       1.00800           0
      4119 MEMB     31       POPS     C210     CEL1    -0.150000       12.0110           0
      4120 MEMB     31       POPS     H101     HEL1     0.150000       1.00800           0
      4121 MEMB     31       POPS     C211     CTL2    -0.180000       12.0110           0
      4122 MEMB     31       POPS     H11R     HAL2     0.900000E-01   1.00800           0
      4123 MEMB     31       POPS     H11S     HAL2     0.900000E-01   1.00800           0
      4124 MEMB     31       POPS     C212     CTL2    -0.180000       12.0110           0
      4125 MEMB     31       POPS     H12R     HAL2     0.900000E-01   1.00800           0
      4126 MEMB     31       POPS     H12S     HAL2     0.900000E-01   1.00800           0
      4127 MEMB     31       POPS     C213     CTL2    -0.180000       12.0110           0
      4128 MEMB     31       POPS     H13R     HAL2     0.900000E-01   1.00800           0
      4129 MEMB     31       POPS     H13S     HAL2     0.900000E-01   1.00800           0
      4130 MEMB     31       POPS     C214     CTL2    -0.180000       12.0110           0
      4131 MEMB     31       POPS     H14R     HAL2     0.900000E-01   1.00800           0
      4132 MEMB     31       POPS     H14S     HAL2     0.900000E-01   1.00800           0
      4133 MEMB     31       POPS     C215     CTL2    -0.180000       12.0110           0
      4134 MEMB     31       POPS     H15R     HAL2     0.900000E-01   1.00800           0
      4135 MEMB     31       POPS     H15S     HAL2     0.900000E-01   1.00800           0
      4136 MEMB     31       POPS     C216     CTL2    -0.180000       12.0110           0
      4137 MEMB     31       POPS     H16R     HAL2     0.900000E-01   1.00800           0
      4138 MEMB     31       POPS     H16S     HAL2     0.900000E-01   1.00800           0
      4139 MEMB     31       POPS     C217     CTL2    -0.180000       12.0110           0
      4140 MEMB     31       POPS     H17R     HAL2     0.900000E-01   1.00800           0
      4141 MEMB     31       POPS     H17S     HAL2     0.900000E-01   1.00800           0
      4142 MEMB     31       POPS     C218     CTL3    -0.270000       12.0110           0
      4143 MEMB     31       POPS     H18R     HAL3     0.900000E-01   1.00800           0
      4144 MEMB     31       POPS     H18S     HAL3     0.900000E-01   1.00800           0
      4145 MEMB     31       POPS     H18T     HAL3     0.900000E-01   1.00800           0
      4146 MEMB     31       POPS     C33      CTL2    -0.180000       12.0110           0
      4147 MEMB     31       POPS     H3X      HAL2     0.900000E-01   1.00800           0
      4148 MEMB     31       POPS     H3Y      HAL2     0.900000E-01   1.00800           0
      4149 MEMB     31       POPS     C34      CTL2    -0.180000       12.0110           0
      4150 MEMB     31       POPS     H4X      HAL2     0.900000E-01   1.00800           0
      4151 MEMB     31       POPS     H4Y      HAL2     0.900000E-01   1.00800           0
      4152 MEMB     31       POPS     C35      CTL2    -0.180000       12.0110           0
      4153 MEMB     31       POPS     H5X      HAL2     0.900000E-01   1.00800           0
      4154 MEMB     31       POPS     H5Y      HAL2     0.900000E-01   1.00800           0
      4155 MEMB     31       POPS     C36      CTL2    -0.180000       12.0110           0
      4156 MEMB     31       POPS     H6X      HAL2     0.900000E-01   1.00800           0
      4157 MEMB     31       POPS     H6Y      HAL2     0.900000E-01   1.00800           0
      4158 MEMB     31       POPS     C37      CTL2    -0.180000       12.0110           0
      4159 MEMB     31       POPS     H7X      HAL2     0.900000E-01   1.00800           0
      4160 MEMB     31       POPS     H7Y      HAL2     0.900000E-01   1.00800           0
      4161 MEMB     31       POPS     C38      CTL2    -0.180000       12.0110           0
      4162 MEMB     31       POPS     H8X      HAL2     0.900000E-01   1.00800           0
      4163 MEMB     31       POPS     H8Y      HAL2     0.900000E-01   1.00800           0
      4164 MEMB     31       POPS     C39      CTL2    -0.180000       12.0110           0
      4165 MEMB     31       POPS     H9X      HAL2     0.900000E-01   1.00800           0
      4166 MEMB     31       POPS     H9Y      HAL2     0.900000E-01   1.00800           0
      4167 MEMB     31       POPS     C310     CTL2    -0.180000       12.0110           0
      4168 MEMB     31       POPS     H10X     HAL2     0.900000E-01   1.00800           0
      4169 MEMB     31       POPS     H10Y     HAL2     0.900000E-01   1.00800           0
      4170 MEMB     31       POPS     C311     CTL2    -0.180000       12.0110           0
      4171 MEMB     31       POPS     H11X     HAL2     0.900000E-01   1.00800           0
      4172 MEMB     31       POPS     H11Y     HAL2     0.900000E-01   1.00800           0
      4173 MEMB     31       POPS     C312     CTL2    -0.180000       12.0110           0
      4174 MEMB     31       POPS     H12X     HAL2     0.900000E-01   1.00800           0
      4175 MEMB     31       POPS     H12Y     HAL2     0.900000E-01   1.00800           0
      4176 MEMB     31       POPS     C313     CTL2    -0.180000       12.0110           0
      4177 MEMB     31       POPS     H13X     HAL2     0.900000E-01   1.00800           0
      4178 MEMB     31       POPS     H13Y     HAL2     0.900000E-01   1.00800           0
      4179 MEMB     31       POPS     C314     CTL2    -0.180000       12.0110           0
      4180 MEMB     31       POPS     H14X     HAL2     0.900000E-01   1.00800           0
      4181 MEMB     31       POPS     H14Y     HAL2     0.900000E-01   1.00800           0
      4182 MEMB     31       POPS     C315     CTL2    -0.180000       12.0110           0
      4183 MEMB     31       POPS     H15X     HAL2     0.900000E-01   1.00800           0
      4184 MEMB     31       POPS     H15Y     HAL2     0.900000E-01   1.00800           0
      4185 MEMB     31       POPS     C316     CTL3    -0.270000       12.0110           0
      4186 MEMB     31       POPS     H16X     HAL3     0.900000E-01   1.00800           0
      4187 MEMB     31       POPS     H16Y     HAL3     0.900000E-01   1.00800           0
      4188 MEMB     31       POPS     H16Z     HAL3     0.900000E-01   1.00800           0
      4189 MEMB     32       POPC     N        NTL     -0.600000       14.0070           0
      4190 MEMB     32       POPC     C12      CTL2    -0.100000       12.0110           0
      4191 MEMB     32       POPC     H12A     HL       0.250000       1.00800           0
      4192 MEMB     32       POPC     H12B     HL       0.250000       1.00800           0
      4193 MEMB     32       POPC     C13      CTL5    -0.350000       12.0110           0
      4194 MEMB     32       POPC     H13A     HL       0.250000       1.00800           0
      4195 MEMB     32       POPC     H13B     HL       0.250000       1.00800           0
      4196 MEMB     32       POPC     H13C     HL       0.250000       1.00800           0
      4197 MEMB     32       POPC     C14      CTL5    -0.350000       12.0110           0
      4198 MEMB     32       POPC     H14A     HL       0.250000       1.00800           0
      4199 MEMB     32       POPC     H14B     HL       0.250000       1.00800           0
      4200 MEMB     32       POPC     H14C     HL       0.250000       1.00800           0
      4201 MEMB     32       POPC     C15      CTL5    -0.350000       12.0110           0
      4202 MEMB     32       POPC     H15A     HL       0.250000       1.00800           0
      4203 MEMB     32       POPC     H15B     HL       0.250000       1.00800           0
      4204 MEMB     32       POPC     H15C     HL       0.250000       1.00800           0
      4205 MEMB     32       POPC     C11      CTL2    -0.800000E-01   12.0110           0
      4206 MEMB     32       POPC     H11A     HAL2     0.900000E-01   1.00800           0
      4207 MEMB     32       POPC     H11B     HAL2     0.900000E-01   1.00800           0
      4208 MEMB     32       POPC     P        PL        1.50000       30.9740           0
      4209 MEMB     32       POPC     O13      O2L     -0.780000       15.9994           0
      4210 MEMB     32       POPC     O14      O2L     -0.780000       15.9994           0
      4211 MEMB     32       POPC     O12      OSLP    -0.570000       15.9994           0
      4212 MEMB     32       POPC     O11      OSLP    -0.570000       15.9994           0
      4213 MEMB     32       POPC     C1       CTL2    -0.800000E-01   12.0110           0
      4214 MEMB     32       POPC     HA       HAL2     0.900000E-01   1.00800           0
      4215 MEMB     32       POPC     HB       HAL2     0.900000E-01   1.00800           0
      4216 MEMB     32       POPC     C2       CTL1     0.170000       12.0110           0
      4217 MEMB     32       POPC     HS       HAL1     0.900000E-01   1.00800           0
      4218 MEMB     32       POPC     O21      OSL     -0.490000       15.9994           0
      4219 MEMB     32       POPC     C21      CL       0.900000       12.0110           0
      4220 MEMB     32       POPC     O22      OBL     -0.630000       15.9994           0
      4221 MEMB     32       POPC     C22      CTL2    -0.220000       12.0110           0
      4222 MEMB     32       POPC     H2R      HAL2     0.900000E-01   1.00800           0
      4223 MEMB     32       POPC     H2S      HAL2     0.900000E-01   1.00800           0
      4224 MEMB     32       POPC     C3       CTL2     0.800000E-01   12.0110           0
      4225 MEMB     32       POPC     HX       HAL2     0.900000E-01   1.00800           0
      4226 MEMB     32       POPC     HY       HAL2     0.900000E-01   1.00800           0
      4227 MEMB     32       POPC     O31      OSL     -0.490000       15.9994           0
      4228 MEMB     32       POPC     C31      CL       0.900000       12.0110           0
      4229 MEMB     32       POPC     O32      OBL     -0.630000       15.9994           0
      4230 MEMB     32       POPC     C32      CTL2    -0.220000       12.0110           0
      4231 MEMB     32       POPC     H2X      HAL2     0.900000E-01   1.00800           0
      4232 MEMB     32       POPC     H2Y      HAL2     0.900000E-01   1.00800           0
      4233 MEMB     32       POPC     C23      CTL2    -0.180000       12.0110           0
      4234 MEMB     32       POPC     H3R      HAL2     0.900000E-01   1.00800           0
      4235 MEMB     32       POPC     H3S      HAL2     0.900000E-01   1.00800           0
      4236 MEMB     32       POPC     C24      CTL2    -0.180000       12.0110           0
      4237 MEMB     32       POPC     H4R      HAL2     0.900000E-01   1.00800           0
      4238 MEMB     32       POPC     H4S      HAL2     0.900000E-01   1.00800           0
      4239 MEMB     32       POPC     C25      CTL2    -0.180000       12.0110           0
      4240 MEMB     32       POPC     H5R      HAL2     0.900000E-01   1.00800           0
      4241 MEMB     32       POPC     H5S      HAL2     0.900000E-01   1.00800           0
      4242 MEMB     32       POPC     C26      CTL2    -0.180000       12.0110           0
      4243 MEMB     32       POPC     H6R      HAL2     0.900000E-01   1.00800           0
      4244 MEMB     32       POPC     H6S      HAL2     0.900000E-01   1.00800           0
      4245 MEMB     32       POPC     C27      CTL2    -0.180000       12.0110           0
      4246 MEMB     32       POPC     H7R      HAL2     0.900000E-01   1.00800           0
      4247 MEMB     32       POPC     H7S      HAL2     0.900000E-01   1.00800           0
      4248 MEMB     32       POPC     C28      CTL2    -0.180000       12.0110           0
      4249 MEMB     32       POPC     H8R      HAL2     0.900000E-01   1.00800           0
      4250 MEMB     32       POPC     H8S      HAL2     0.900000E-01   1.00800           0
      4251 MEMB     32       POPC     C29      CEL1    -0.150000       12.0110           0
      4252 MEMB     32       POPC     H91      HEL1     0.150000       1.00800           0
      4253 MEMB     32       POPC     C210     CEL1    -0.150000       12.0110           0
      4254 MEMB     32       POPC     H101     HEL1     0.150000       1.00800           0
      4255 MEMB     32       POPC     C211     CTL2    -0.180000       12.0110           0
      4256 MEMB     32       POPC     H11R     HAL2     0.900000E-01   1.00800           0
      4257 MEMB     32       POPC     H11S     HAL2     0.900000E-01   1.00800           0
      4258 MEMB     32       POPC     C212     CTL2    -0.180000       12.0110           0
      4259 MEMB     32       POPC     H12R     HAL2     0.900000E-01   1.00800           0
      4260 MEMB     32       POPC     H12S     HAL2     0.900000E-01   1.00800           0
      4261 MEMB     32       POPC     C213     CTL2    -0.180000       12.0110           0
      4262 MEMB     32       POPC     H13R     HAL2     0.900000E-01   1.00800           0
      4263 MEMB     32       POPC     H13S     HAL2     0.900000E-01   1.00800           0
      4264 MEMB     32       POPC     C214     CTL2    -0.180000       12.0110           0
      4265 MEMB     32       POPC     H14R     HAL2     0.900000E-01   1.00800           0
      4266 MEMB     32       POPC     H14S     HAL2     0.900000E-01   1.00800           0
      4267 MEMB     32       POPC     C215     CTL2    -0.180000       12.0110           0
      4268 MEMB     32       POPC     H15R     HAL2     0.900000E-01   1.00800           0
      4269 MEMB     32       POPC     H15S     HAL2     0.900000E-01   1.00800           0
      4270 MEMB     32       POPC     C216     CTL2    -0.180000       12.0110           0
      4271 MEMB     32       POPC     H16R     HAL2     0.900000E-01   1.00800           0
      4272 MEMB     32       POPC     H16S     HAL2     0.900000E-01   1.00800           0
      4273 MEMB     32       POPC     C217     CTL2    -0.180000       12.0110           0
      4274 MEMB     32       POPC     H17R     HAL2     0.900000E-01   1.00800           0
      4275 MEMB     32       POPC     H17S     HAL2     0.900000E-01   1.00800           0
      4276 MEMB     32       POPC     C218     CTL3    -0.270000       12.0110           0
      4277 MEMB     32       POPC     H18R     HAL3     0.900000E-01   1.00800           0
      4278 MEMB     32       POPC     H18S     HAL3     0.900000E-01   1.00800           0
      4279 MEMB     32       POPC     H18T     HAL3     0.900000E-01   1.00800           0
      4280 MEMB     32       POPC     C33      CTL2    -0.180000       12.0110           0
      4281 MEMB     32       POPC     H3X      HAL2     0.900000E-01   1.00800           0
      4282 MEMB     32       POPC     H3Y      HAL2     0.900000E-01   1.00800           0
      4283 MEMB     32       POPC     C34      CTL2    -0.180000       12.0110           0
      4284 MEMB     32       POPC     H4X      HAL2     0.900000E-01   1.00800           0
      4285 MEMB     32       POPC     H4Y      HAL2     0.900000E-01   1.00800           0
      4286 MEMB     32       POPC     C35      CTL2    -0.180000       12.0110           0
      4287 MEMB     32       POPC     H5X      HAL2     0.900000E-01   1.00800           0
      4288 MEMB     32       POPC     H5Y      HAL2     0.900000E-01   1.00800           0
      4289 MEMB     32       POPC     C36      CTL2    -0.180000       12.0110           0
      4290 MEMB     32       POPC     H6X      HAL2     0.900000E-01   1.00800           0
      4291 MEMB     32       POPC     H6Y      HAL2     0.900000E-01   1.00800           0
      4292 MEMB     32       POPC     C37      CTL2    -0.180000       12.0110           0
      4293 MEMB     32       POPC     H7X      HAL2     0.900000E-01   1.00800           0
      4294 MEMB     32       POPC     H7Y      HAL2     0.900000E-01   1.00800           0
      4295 MEMB     32       POPC     C38      CTL2    -0.180000       12.0110           0
      4296 MEMB     32       POPC     H8X      HAL2     0.900000E-01   1.00800           0
      4297 MEMB     32       POPC     H8Y      HAL2     0.900000E-01   1.00800           0
      4298 MEMB     32       POPC     C39      CTL2    -0.180000       12.0110           0
      4299 MEMB     32       POPC     H9X      HAL2     0.900000E-01   1.00800           0
      4300 MEMB     32       POPC     H9Y      HAL2     0.900000E-01   1.00800           0
      4301 MEMB     32       POPC     C310     CTL2    -0.180000       12.0110           0
      4302 MEMB     32       POPC     H10X     HAL2     0.900000E-01   1.00800           0
      4303 MEMB     32       POPC     H10Y     HAL2     0.900000E-01   1.00800           0
      4304 MEMB     32       POPC     C311     CTL2    -0.180000       12.0110           0
      4305 MEMB     32       POPC     H11X     HAL2     0.900000E-01   1.00800           0
      4306 MEMB     32       POPC     H11Y     HAL2     0.900000E-01   1.00800           0
      4307 MEMB     32       POPC     C312     CTL2    -0.180000       12.0110           0
      4308 MEMB     32       POPC     H12X     HAL2     0.900000E-01   1.00800           0
      4309 MEMB     32       POPC     H12Y     HAL2     0.900000E-01   1.00800           0
      4310 MEMB     32       POPC     C313     CTL2    -0.180000       12.0110           0
      4311 MEMB     32       POPC     H13X     HAL2     0.900000E-01   1.00800           0
      4312 MEMB     32       POPC     H13Y     HAL2     0.900000E-01   1.00800           0
      4313 MEMB     32       POPC     C314     CTL2    -0.180000       12.0110           0
      4314 MEMB     32       POPC     H14X     HAL2     0.900000E-01   1.00800           0
      4315 MEMB     32       POPC     H14Y     HAL2     0.900000E-01   1.00800           0
      4316 MEMB     32       POPC     C315     CTL2    -0.180000       12.0110           0
      4317 MEMB     32       POPC     H15X     HAL2     0.900000E-01   1.00800           0
      4318 MEMB     32       POPC     H15Y     HAL2     0.900000E-01   1.00800           0
      4319 MEMB     32       POPC     C316     CTL3    -0.270000       12.0110           0
      4320 MEMB     32       POPC     H16X     HAL3     0.900000E-01   1.00800           0
      4321 MEMB     32       POPC     H16Y     HAL3     0.900000E-01   1.00800           0
      4322 MEMB     32       POPC     H16Z     HAL3     0.900000E-01   1.00800           0
      4323 MEMB     33       POPC     N        NTL     -0.600000       14.0070           0
      4324 MEMB     33       POPC     C12      CTL2    -0.100000       12.0110           0
      4325 MEMB     33       POPC     H12A     HL       0.250000       1.00800           0
      4326 MEMB     33       POPC     H12B     HL       0.250000       1.00800           0
      4327 MEMB     33       POPC     C13      CTL5    -0.350000       12.0110           0
      4328 MEMB     33       POPC     H13A     HL       0.250000       1.00800           0
      4329 MEMB     33       POPC     H13B     HL       0.250000       1.00800           0
      4330 MEMB     33       POPC     H13C     HL       0.250000       1.00800           0
      4331 MEMB     33       POPC     C14      CTL5    -0.350000       12.0110           0
      4332 MEMB     33       POPC     H14A     HL       0.250000       1.00800           0
      4333 MEMB     33       POPC     H14B     HL       0.250000       1.00800           0
      4334 MEMB     33       POPC     H14C     HL       0.250000       1.00800           0
      4335 MEMB     33       POPC     C15      CTL5    -0.350000       12.0110           0
      4336 MEMB     33       POPC     H15A     HL       0.250000       1.00800           0
      4337 MEMB     33       POPC     H15B     HL       0.250000       1.00800           0
      4338 MEMB     33       POPC     H15C     HL       0.250000       1.00800           0
      4339 MEMB     33       POPC     C11      CTL2    -0.800000E-01   12.0110           0
      4340 MEMB     33       POPC     H11A     HAL2     0.900000E-01   1.00800           0
      4341 MEMB     33       POPC     H11B     HAL2     0.900000E-01   1.00800           0
      4342 MEMB     33       POPC     P        PL        1.50000       30.9740           0
      4343 MEMB     33       POPC     O13      O2L     -0.780000       15.9994           0
      4344 MEMB     33       POPC     O14      O2L     -0.780000       15.9994           0
      4345 MEMB     33       POPC     O12      OSLP    -0.570000       15.9994           0
      4346 MEMB     33       POPC     O11      OSLP    -0.570000       15.9994           0
      4347 MEMB     33       POPC     C1       CTL2    -0.800000E-01   12.0110           0
      4348 MEMB     33       POPC     HA       HAL2     0.900000E-01   1.00800           0
      4349 MEMB     33       POPC     HB       HAL2     0.900000E-01   1.00800           0
      4350 MEMB     33       POPC     C2       CTL1     0.170000       12.0110           0
      4351 MEMB     33       POPC     HS       HAL1     0.900000E-01   1.00800           0
      4352 MEMB     33       POPC     O21      OSL     -0.490000       15.9994           0
      4353 MEMB     33       POPC     C21      CL       0.900000       12.0110           0
      4354 MEMB     33       POPC     O22      OBL     -0.630000       15.9994           0
      4355 MEMB     33       POPC     C22      CTL2    -0.220000       12.0110           0
      4356 MEMB     33       POPC     H2R      HAL2     0.900000E-01   1.00800           0
      4357 MEMB     33       POPC     H2S      HAL2     0.900000E-01   1.00800           0
      4358 MEMB     33       POPC     C3       CTL2     0.800000E-01   12.0110           0
      4359 MEMB     33       POPC     HX       HAL2     0.900000E-01   1.00800           0
      4360 MEMB     33       POPC     HY       HAL2     0.900000E-01   1.00800           0
      4361 MEMB     33       POPC     O31      OSL     -0.490000       15.9994           0
      4362 MEMB     33       POPC     C31      CL       0.900000       12.0110           0
      4363 MEMB     33       POPC     O32      OBL     -0.630000       15.9994           0
      4364 MEMB     33       POPC     C32      CTL2    -0.220000       12.0110           0
      4365 MEMB     33       POPC     H2X      HAL2     0.900000E-01   1.00800           0
      4366 MEMB     33       POPC     H2Y      HAL2     0.900000E-01   1.00800           0
      4367 MEMB     33       POPC     C23      CTL2    -0.180000       12.0110           0
      4368 MEMB     33       POPC     H3R      HAL2     0.900000E-01   1.00800           0
      4369 MEMB     33       POPC     H3S      HAL2     0.900000E-01   1.00800           0
      4370 MEMB     33       POPC     C24      CTL2    -0.180000       12.0110           0
      4371 MEMB     33       POPC     H4R      HAL2     0.900000E-01   1.00800           0
      4372 MEMB     33       POPC     H4S      HAL2     0.900000E-01   1.00800           0
      4373 MEMB     33       POPC     C25      CTL2    -0.180000       12.0110           0
      4374 MEMB     33       POPC     H5R      HAL2     0.900000E-01   1.00800           0
      4375 MEMB     33       POPC     H5S      HAL2     0.900000E-01   1.00800           0
      4376 MEMB     33       POPC     C26      CTL2    -0.180000       12.0110           0
      4377 MEMB     33       POPC     H6R      HAL2     0.900000E-01   1.00800           0
      4378 MEMB     33       POPC     H6S      HAL2     0.900000E-01   1.00800           0
      4379 MEMB     33       POPC     C27      CTL2    -0.180000       12.0110           0
      4380 MEMB     33       POPC     H7R      HAL2     0.900000E-01   1.00800           0
      4381 MEMB     33       POPC     H7S      HAL2     0.900000E-01   1.00800           0
      4382 MEMB     33       POPC     C28      CTL2    -0.180000       12.0110           0
      4383 MEMB     33       POPC     H8R      HAL2     0.900000E-01   1.00800           0
      4384 MEMB     33       POPC     H8S      HAL2     0.900000E-01   1.00800           0
      4385 MEMB     33       POPC     C29      CEL1    -0.150000       12.0110           0
      4386 MEMB     33       POPC     H91      HEL1     0.150000       1.00800           0
      4387 MEMB     33       POPC     C210     CEL1    -0.150000       12.0110           0
      4388 MEMB     33       POPC     H101     HEL1     0.150000       1.00800           0
      4389 MEMB     33       POPC     C211     CTL2    -0.180000       12.0110           0
      4390 MEMB     33       POPC     H11R     HAL2     0.900000E-01   1.00800           0
      4391 MEMB     33       POPC     H11S     HAL2     0.900000E-01   1.00800           0
      4392 MEMB     33       POPC     C212     CTL2    -0.180000       12.0110           0
      4393 MEMB     33       POPC     H12R     HAL2     0.900000E-01   1.00800           0
      4394 MEMB     33       POPC     H12S     HAL2     0.900000E-01   1.00800           0
      4395 MEMB     33       POPC     C213     CTL2    -0.180000       12.0110           0
      4396 MEMB     33       POPC     H13R     HAL2     0.900000E-01   1.00800           0
      4397 MEMB     33       POPC     H13S     HAL2     0.900000E-01   1.00800           0
      4398 MEMB     33       POPC     C214     CTL2    -0.180000       12.0110           0
      4399 MEMB     33       POPC     H14R     HAL2     0.900000E-01   1.00800           0
      4400 MEMB     33       POPC     H14S     HAL2     0.900000E-01   1.00800           0
      4401 MEMB     33       POPC     C215     CTL2    -0.180000       12.0110           0
      4402 MEMB     33       POPC     H15R     HAL2     0.900000E-01   1.00800           0
      4403 MEMB     33       POPC     H15S     HAL2     0.900000E-01   1.00800           0
      4404 MEMB     33       POPC     C216     CTL2    -0.180000       12.0110           0
      4405 MEMB     33       POPC     H16R     HAL2     0.900000E-01   1.00800           0
      4406 MEMB     33       POPC     H16S     HAL2     0.900000E-01   1.00800           0
      4407 MEMB     33       POPC     C217     CTL2    -0.180000       12.0110           0
      4408 MEMB     33       POPC     H17R     HAL2     0.900000E-01   1.00800           0
      4409 MEMB     33       POPC     H17S     HAL2     0.900000E-01   1.00800           0
      4410 MEMB     33       POPC     C218     CTL3    -0.270000       12.0110           0
      4411 MEMB     33       POPC     H18R     HAL3     0.900000E-01   1.00800           0
      4412 MEMB     33       POPC     H18S     HAL3     0.900000E-01   1.00800           0
      4413 MEMB     33       POPC     H18T     HAL3     0.900000E-01   1.00800           0
      4414 MEMB     33       POPC     C33      CTL2    -0.180000       12.0110           0
      4415 MEMB     33       POPC     H3X      HAL2     0.900000E-01   1.00800           0
      4416 MEMB     33       POPC     H3Y      HAL2     0.900000E-01   1.00800           0
      4417 MEMB     33       POPC     C34      CTL2    -0.180000       12.0110           0
      4418 MEMB     33       POPC     H4X      HAL2     0.900000E-01   1.00800           0
      4419 MEMB     33       POPC     H4Y      HAL2     0.900000E-01   1.00800           0
      4420 MEMB     33       POPC     C35      CTL2    -0.180000       12.0110           0
      4421 MEMB     33       POPC     H5X      HAL2     0.900000E-01   1.00800           0
      4422 MEMB     33       POPC     H5Y      HAL2     0.900000E-01   1.00800           0
      4423 MEMB     33       POPC     C36      CTL2    -0.180000       12.0110           0
      4424 MEMB     33       POPC     H6X      HAL2     0.900000E-01   1.00800           0
      4425 MEMB     33       POPC     H6Y      HAL2     0.900000E-01   1.00800           0
      4426 MEMB     33       POPC     C37      CTL2    -0.180000       12.0110           0
      4427 MEMB     33       POPC     H7X      HAL2     0.900000E-01   1.00800           0
      4428 MEMB     33       POPC     H7Y      HAL2     0.900000E-01   1.00800           0
      4429 MEMB     33       POPC     C38      CTL2    -0.180000       12.0110           0
      4430 MEMB     33       POPC     H8X      HAL2     0.900000E-01   1.00800           0
      4431 MEMB     33       POPC     H8Y      HAL2     0.900000E-01   1.00800           0
      4432 MEMB     33       POPC     C39      CTL2    -0.180000       12.0110           0
      4433 MEMB     33       POPC     H9X      HAL2     0.900000E-01   1.00800           0
      4434 MEMB     33       POPC     H9Y      HAL2     0.900000E-01   1.00800           0
      4435 MEMB     33       POPC     C310     CTL2    -0.180000       12.0110           0
      4436 MEMB     33       POPC     H10X     HAL2     0.900000E-01   1.00800           0
      4437 MEMB     33       POPC     H10Y     HAL2     0.900000E-01   1.00800           0
      4438 MEMB     33       POPC     C311     CTL2    -0.180000       12.0110           0
      4439 MEMB     33       POPC     H11X     HAL2     0.900000E-01   1.00800           0
      4440 MEMB     33       POPC     H11Y     HAL2     0.900000E-01   1.00800           0
      4441 MEMB     33       POPC     C312     CTL2    -0.180000       12.0110           0
      4442 MEMB     33       POPC     H12X     HAL2     0.900000E-01   1.00800           0
      4443 MEMB     33       POPC     H12Y     HAL2     0.900000E-01   1.00800           0
      4444 MEMB     33       POPC     C313     CTL2    -0.180000       12.0110           0
      4445 MEMB     33       POPC     H13X     HAL2     0.900000E-01   1.00800           0
      4446 MEMB     33       POPC     H13Y     HAL2     0.900000E-01   1.00800           0
      4447 MEMB     33       POPC     C314     CTL2    -0.180000       12.0110           0
      4448 MEMB     33       POPC     H14X     HAL2     0.900000E-01   1.00800           0
      4449 MEMB     33       POPC     H14Y     HAL2     0.900000E-01   1.00800           0
      4450 MEMB     33       POPC     C315     CTL2    -0.180000       12.0110           0
      4451 MEMB     33       POPC     H15X     HAL2     0.900000E-01   1.00800           0
      4452 MEMB     33       POPC     H15Y     HAL2     0.900000E-01   1.00800           0
      4453 MEMB     33       POPC     C316     CTL3    -0.270000       12.0110           0
      4454 MEMB     33       POPC     H16X     HAL3     0.900000E-01   1.00800           0
      4455 MEMB     33       POPC     H16Y     HAL3     0.900000E-01   1.00800           0
      4456 MEMB     33       POPC     H16Z     HAL3     0.900000E-01   1.00800           0
      4457 MEMB     34       POPC     N        NTL     -0.600000       14.0070           0
      4458 MEMB     34       POPC     C12      CTL2    -0.100000       12.0110           0
      4459 MEMB     34       POPC     H12A     HL       0.250000       1.00800           0
      4460 MEMB     34       POPC     H12B     HL       0.250000       1.00800           0
      4461 MEMB     34       POPC     C13      CTL5    -0.350000       12.0110           0
      4462 MEMB     34       POPC     H13A     HL       0.250000       1.00800           0
      4463 MEMB     34       POPC     H13B     HL       0.250000       1.00800           0
      4464 MEMB     34       POPC     H13C     HL       0.250000       1.00800           0
      4465 MEMB     34       POPC     C14      CTL5    -0.350000       12.0110           0
      4466 MEMB     34       POPC     H14A     HL       0.250000       1.00800           0
      4467 MEMB     34       POPC     H14B     HL       0.250000       1.00800           0
      4468 MEMB     34       POPC     H14C     HL       0.250000       1.00800           0
      4469 MEMB     34       POPC     C15      CTL5    -0.350000       12.0110           0
      4470 MEMB     34       POPC     H15A     HL       0.250000       1.00800           0
      4471 MEMB     34       POPC     H15B     HL       0.250000       1.00800           0
      4472 MEMB     34       POPC     H15C     HL       0.250000       1.00800           0
      4473 MEMB     34       POPC     C11      CTL2    -0.800000E-01   12.0110           0
      4474 MEMB     34       POPC     H11A     HAL2     0.900000E-01   1.00800           0
      4475 MEMB     34       POPC     H11B     HAL2     0.900000E-01   1.00800           0
      4476 MEMB     34       POPC     P        PL        1.50000       30.9740           0
      4477 MEMB     34       POPC     O13      O2L     -0.780000       15.9994           0
      4478 MEMB     34       POPC     O14      O2L     -0.780000       15.9994           0
      4479 MEMB     34       POPC     O12      OSLP    -0.570000       15.9994           0
      4480 MEMB     34       POPC     O11      OSLP    -0.570000       15.9994           0
      4481 MEMB     34       POPC     C1       CTL2    -0.800000E-01   12.0110           0
      4482 MEMB     34       POPC     HA       HAL2     0.900000E-01   1.00800           0
      4483 MEMB     34       POPC     HB       HAL2     0.900000E-01   1.00800           0
      4484 MEMB     34       POPC     C2       CTL1     0.170000       12.0110           0
      4485 MEMB     34       POPC     HS       HAL1     0.900000E-01   1.00800           0
      4486 MEMB     34       POPC     O21      OSL     -0.490000       15.9994           0
      4487 MEMB     34       POPC     C21      CL       0.900000       12.0110           0
      4488 MEMB     34       POPC     O22      OBL     -0.630000       15.9994           0
      4489 MEMB     34       POPC     C22      CTL2    -0.220000       12.0110           0
      4490 MEMB     34       POPC     H2R      HAL2     0.900000E-01   1.00800           0
      4491 MEMB     34       POPC     H2S      HAL2     0.900000E-01   1.00800           0
      4492 MEMB     34       POPC     C3       CTL2     0.800000E-01   12.0110           0
      4493 MEMB     34       POPC     HX       HAL2     0.900000E-01   1.00800           0
      4494 MEMB     34       POPC     HY       HAL2     0.900000E-01   1.00800           0
      4495 MEMB     34       POPC     O31      OSL     -0.490000       15.9994           0
      4496 MEMB     34       POPC     C31      CL       0.900000       12.0110           0
      4497 MEMB     34       POPC     O32      OBL     -0.630000       15.9994           0
      4498 MEMB     34       POPC     C32      CTL2    -0.220000       12.0110           0
      4499 MEMB     34       POPC     H2X      HAL2     0.900000E-01   1.00800           0
      4500 MEMB     34       POPC     H2Y      HAL2     0.900000E-01   1.00800           0
      4501 MEMB     34       POPC     C23      CTL2    -0.180000       12.0110           0
      4502 MEMB     34       POPC     H3R      HAL2     0.900000E-01   1.00800           0
      4503 MEMB     34       POPC     H3S      HAL2     0.900000E-01   1.00800           0
      4504 MEMB     34       POPC     C24      CTL2    -0.180000       12.0110           0
      4505 MEMB     34       POPC     H4R      HAL2     0.900000E-01   1.00800           0
      4506 MEMB     34       POPC     H4S      HAL2     0.900000E-01   1.00800           0
      4507 MEMB     34       POPC     C25      CTL2    -0.180000       12.0110           0
      4508 MEMB     34       POPC     H5R      HAL2     0.900000E-01   1.00800           0
      4509 MEMB     34       POPC     H5S      HAL2     0.900000E-01   1.00800           0
      4510 MEMB     34       POPC     C26      CTL2    -0.180000       12.0110           0
      4511 MEMB     34       POPC     H6R      HAL2     0.900000E-01   1.00800           0
      4512 MEMB     34       POPC     H6S      HAL2     0.900000E-01   1.00800           0
      4513 MEMB     34       POPC     C27      CTL2    -0.180000       12.0110           0
      4514 MEMB     34       POPC     H7R      HAL2     0.900000E-01   1.00800           0
      4515 MEMB     34       POPC     H7S      HAL2     0.900000E-01   1.00800           0
      4516 MEMB     34       POPC     C28      CTL2    -0.180000       12.0110           0
      4517 MEMB     34       POPC     H8R      HAL2     0.900000E-01   1.00800           0
      4518 MEMB     34       POPC     H8S      HAL2     0.900000E-01   1.00800           0
      4519 MEMB     34       POPC     C29      CEL1    -0.150000       12.0110           0
      4520 MEMB     34       POPC     H91      HEL1     0.150000       1.00800           0
      4521 MEMB     34       POPC     C210     CEL1    -0.150000       12.0110           0
      4522 MEMB     34       POPC     H101     HEL1     0.150000       1.00800           0
      4523 MEMB     34       POPC     C211     CTL2    -0.180000       12.0110           0
      4524 MEMB     34       POPC     H11R     HAL2     0.900000E-01   1.00800           0
      4525 MEMB     34       POPC     H11S     HAL2     0.900000E-01   1.00800           0
      4526 MEMB     34       POPC     C212     CTL2    -0.180000       12.0110           0
      4527 MEMB     34       POPC     H12R     HAL2     0.900000E-01   1.00800           0
      4528 MEMB     34       POPC     H12S     HAL2     0.900000E-01   1.00800           0
      4529 MEMB     34       POPC     C213     CTL2    -0.180000       12.0110           0
      4530 MEMB     34       POPC     H13R     HAL2     0.900000E-01   1.00800           0
      4531 MEMB     34       POPC     H13S     HAL2     0.900000E-01   1.00800           0
      4532 MEMB     34       POPC     C214     CTL2    -0.180000       12.0110           0
      4533 MEMB     34       POPC     H14R     HAL2     0.900000E-01   1.00800           0
      4534 MEMB     34       POPC     H14S     HAL2     0.900000E-01   1.00800           0
      4535 MEMB     34       POPC     C215     CTL2    -0.180000       12.0110           0
      4536 MEMB     34       POPC     H15R     HAL2     0.900000E-01   1.00800           0
      4537 MEMB     34       POPC     H15S     HAL2     0.900000E-01   1.00800           0
      4538 MEMB     34       POPC     C216     CTL2    -0.180000       12.0110           0
      4539 MEMB     34       POPC     H16R     HAL2     0.900000E-01   1.00800           0
      4540 MEMB     34       POPC     H16S     HAL2     0.900000E-01   1.00800           0
      4541 MEMB     34       POPC     C217     CTL2    -0.180000       12.0110           0
      4542 MEMB     34       POPC     H17R     HAL2     0.900000E-01   1.00800           0
      4543 MEMB     34       POPC     H17S     HAL2     0.900000E-01   1.00800           0
      4544 MEMB     34       POPC     C218     CTL3    -0.270000       12.0110           0
      4545 MEMB     34       POPC     H18R     HAL3     0.900000E-01   1.00800           0
      4546 MEMB     34       POPC     H18S     HAL3     0.900000E-01   1.00800           0
      4547 MEMB     34       POPC     H18T     HAL3     0.900000E-01   1.00800           0
      4548 MEMB     34       POPC     C33      CTL2    -0.180000       12.0110           0
      4549 MEMB     34       POPC     H3X      HAL2     0.900000E-01   1.00800           0
      4550 MEMB     34       POPC     H3Y      HAL2     0.900000E-01   1.00800           0
      4551 MEMB     34       POPC     C34      CTL2    -0.180000       12.0110           0
      4552 MEMB     34       POPC     H4X      HAL2     0.900000E-01   1.00800           0
      4553 MEMB     34       POPC     H4Y      HAL2     0.900000E-01   1.00800           0
      4554 MEMB     34       POPC     C35      CTL2    -0.180000       12.0110           0
      4555 MEMB     34       POPC     H5X      HAL2     0.900000E-01   1.00800           0
      4556 MEMB     34       POPC     H5Y      HAL2     0.900000E-01   1.00800           0
      4557 MEMB     34       POPC     C36      CTL2    -0.180000       12.0110           0
      4558 MEMB     34       POPC     H6X      HAL2     0.900000E-01   1.00800           0
      4559 MEMB     34       POPC     H6Y      HAL2     0.900000E-01   1.00800           0
      4560 MEMB     34       POPC     C37      CTL2    -0.180000       12.0110           0
      4561 MEMB     34       POPC     H7X      HAL2     0.900000E-01   1.00800           0
      4562 MEMB     34       POPC     H7Y      HAL2     0.900000E-01   1.00800           0
      4563 MEMB     34       POPC     C38      CTL2    -0.180000       12.0110           0
      4564 MEMB     34       POPC     H8X      HAL2     0.900000E-01   1.00800           0
      4565 MEMB     34       POPC     H8Y      HAL2     0.900000E-01   1.00800           0
      4566 MEMB     34       POPC     C39      CTL2    -0.180000       12.0110           0
      4567 MEMB     34       POPC     H9X      HAL2     0.900000E-01   1.00800           0
      4568 MEMB     34       POPC     H9Y      HAL2     0.900000E-01   1.00800           0
      4569 MEMB     34       POPC     C310     CTL2    -0.180000       12.0110           0
      4570 MEMB     34       POPC     H10X     HAL2     0.900000E-01   1.00800           0
      4571 MEMB     34       POPC     H10Y     HAL2     0.900000E-01   1.00800           0
      4572 MEMB     34       POPC     C311     CTL2    -0.180000       12.0110           0
      4573 MEMB     34       POPC     H11X     HAL2     0.900000E-01   1.00800           0
      4574 MEMB     34       POPC     H11Y     HAL2     0.900000E-01   1.00800           0
      4575 MEMB     34       POPC     C312     CTL2    -0.180000       12.0110           0
      4576 MEMB     34       POPC     H12X     HAL2     0.900000E-01   1.00800           0
      4577 MEMB     34       POPC     H12Y     HAL2     0.900000E-01   1.00800           0
      4578 MEMB     34       POPC     C313     CTL2    -0.180000       12.0110           0
      4579 MEMB     34       POPC     H13X     HAL2     0.900000E-01   1.00800           0
      4580 MEMB     34       POPC     H13Y     HAL2     0.900000E-01   1.00800           0
      4581 MEMB     34       POPC     C314     CTL2    -0.180000       12.0110           0
      4582 MEMB     34       POPC     H14X     HAL2     0.900000E-01   1.00800           0
      4583 MEMB     34       POPC     H14Y     HAL2     0.900000E-01   1.00800           0
      4584 MEMB     34       POPC     C315     CTL2    -0.180000       12.0110           0
      4585 MEMB     34       POPC     H15X     HAL2     0.900000E-01   1.00800           0
      4586 MEMB     34       POPC     H15Y     HAL2     0.900000E-01   1.00800           0
      4587 MEMB     34       POPC     C316     CTL3    -0.270000       12.0110           0
      4588 MEMB     34       POPC     H16X     HAL3     0.900000E-01   1.00800           0
      4589 MEMB     34       POPC     H16Y     HAL3     0.900000E-01   1.00800           0
      4590 MEMB     34       POPC     H16Z     HAL3     0.900000E-01   1.00800           0
      4591 MEMB     35       POPC     N        NTL     -0.600000       14.0070           0
      4592 MEMB     35       POPC     C12      CTL2    -0.100000       12.0110           0
      4593 MEMB     35       POPC     H12A     HL       0.250000       1.00800           0
      4594 MEMB     35       POPC     H12B     HL       0.250000       1.00800           0
      4595 MEMB     35       POPC     C13      CTL5    -0.350000       12.0110           0
      4596 MEMB     35       POPC     H13A     HL       0.250000       1.00800           0
      4597 MEMB     35       POPC     H13B     HL       0.250000       1.00800           0
      4598 MEMB     35       POPC     H13C     HL       0.250000       1.00800           0
      4599 MEMB     35       POPC     C14      CTL5    -0.350000       12.0110           0
      4600 MEMB     35       POPC     H14A     HL       0.250000       1.00800           0
      4601 MEMB     35       POPC     H14B     HL       0.250000       1.00800           0
      4602 MEMB     35       POPC     H14C     HL       0.250000       1.00800           0
      4603 MEMB     35       POPC     C15      CTL5    -0.350000       12.0110           0
      4604 MEMB     35       POPC     H15A     HL       0.250000       1.00800           0
      4605 MEMB     35       POPC     H15B     HL       0.250000       1.00800           0
      4606 MEMB     35       POPC     H15C     HL       0.250000       1.00800           0
      4607 MEMB     35       POPC     C11      CTL2    -0.800000E-01   12.0110           0
      4608 MEMB     35       POPC     H11A     HAL2     0.900000E-01   1.00800           0
      4609 MEMB     35       POPC     H11B     HAL2     0.900000E-01   1.00800           0
      4610 MEMB     35       POPC     P        PL        1.50000       30.9740           0
      4611 MEMB     35       POPC     O13      O2L     -0.780000       15.9994           0
      4612 MEMB     35       POPC     O14      O2L     -0.780000       15.9994           0
      4613 MEMB     35       POPC     O12      OSLP    -0.570000       15.9994           0
      4614 MEMB     35       POPC     O11      OSLP    -0.570000       15.9994           0
      4615 MEMB     35       POPC     C1       CTL2    -0.800000E-01   12.0110           0
      4616 MEMB     35       POPC     HA       HAL2     0.900000E-01   1.00800           0
      4617 MEMB     35       POPC     HB       HAL2     0.900000E-01   1.00800           0
      4618 MEMB     35       POPC     C2       CTL1     0.170000       12.0110           0
      4619 MEMB     35       POPC     HS       HAL1     0.900000E-01   1.00800           0
      4620 MEMB     35       POPC     O21      OSL     -0.490000       15.9994           0
      4621 MEMB     35       POPC     C21      CL       0.900000       12.0110           0
      4622 MEMB     35       POPC     O22      OBL     -0.630000       15.9994           0
      4623 MEMB     35       POPC     C22      CTL2    -0.220000       12.0110           0
      4624 MEMB     35       POPC     H2R      HAL2     0.900000E-01   1.00800           0
      4625 MEMB     35       POPC     H2S      HAL2     0.900000E-01   1.00800           0
      4626 MEMB     35       POPC     C3       CTL2     0.800000E-01   12.0110           0
      4627 MEMB     35       POPC     HX       HAL2     0.900000E-01   1.00800           0
      4628 MEMB     35       POPC     HY       HAL2     0.900000E-01   1.00800           0
      4629 MEMB     35       POPC     O31      OSL     -0.490000       15.9994           0
      4630 MEMB     35       POPC     C31      CL       0.900000       12.0110           0
      4631 MEMB     35       POPC     O32      OBL     -0.630000       15.9994           0
      4632 MEMB     35       POPC     C32      CTL2    -0.220000       12.0110           0
      4633 MEMB     35       POPC     H2X      HAL2     0.900000E-01   1.00800           0
      4634 MEMB     35       POPC     H2Y      HAL2     0.900000E-01   1.00800           0
      4635 MEMB     35       POPC     C23      CTL2    -0.180000       12.0110           0
      4636 MEMB     35       POPC     H3R      HAL2     0.900000E-01   1.00800           0
      4637 MEMB     35       POPC     H3S      HAL2     0.900000E-01   1.00800           0
      4638 MEMB     35       POPC     C24      CTL2    -0.180000       12.0110           0
      4639 MEMB     35       POPC     H4R      HAL2     0.900000E-01   1.00800           0
      4640 MEMB     35       POPC     H4S      HAL2     0.900000E-01   1.00800           0
      4641 MEMB     35       POPC     C25      CTL2    -0.180000       12.0110           0
      4642 MEMB     35       POPC     H5R      HAL2     0.900000E-01   1.00800           0
      4643 MEMB     35       POPC     H5S      HAL2     0.900000E-01   1.00800           0
      4644 MEMB     35       POPC     C26      CTL2    -0.180000       12.0110           0
      4645 MEMB     35       POPC     H6R      HAL2     0.900000E-01   1.00800           0
      4646 MEMB     35       POPC     H6S      HAL2     0.900000E-01   1.00800           0
      4647 MEMB     35       POPC     C27      CTL2    -0.180000       12.0110           0
      4648 MEMB     35       POPC     H7R      HAL2     0.900000E-01   1.00800           0
      4649 MEMB     35       POPC     H7S      HAL2     0.900000E-01   1.00800           0
      4650 MEMB     35       POPC     C28      CTL2    -0.180000       12.0110           0
      4651 MEMB     35       POPC     H8R      HAL2     0.900000E-01   1.00800           0
      4652 MEMB     35       POPC     H8S      HAL2     0.900000E-01   1.00800           0
      4653 MEMB     35       POPC     C29      CEL1    -0.150000       12.0110           0
      4654 MEMB     35       POPC     H91      HEL1     0.150000       1.00800           0
      4655 MEMB     35       POPC     C210     CEL1    -0.150000       12.0110           0
      4656 MEMB     35       POPC     H101     HEL1     0.150000       1.00800           0
      4657 MEMB     35       POPC     C211     CTL2    -0.180000       12.0110           0
      4658 MEMB     35       POPC     H11R     HAL2     0.900000E-01   1.00800           0
      4659 MEMB     35       POPC     H11S     HAL2     0.900000E-01   1.00800           0
      4660 MEMB     35       POPC     C212     CTL2    -0.180000       12.0110           0
      4661 MEMB     35       POPC     H12R     HAL2     0.900000E-01   1.00800           0
      4662 MEMB     35       POPC     H12S     HAL2     0.900000E-01   1.00800           0
      4663 MEMB     35       POPC     C213     CTL2    -0.180000       12.0110           0
      4664 MEMB     35       POPC     H13R     HAL2     0.900000E-01   1.00800           0
      4665 MEMB     35       POPC     H13S     HAL2     0.900000E-01   1.00800           0
      4666 MEMB     35       POPC     C214     CTL2    -0.180000       12.0110           0
      4667 MEMB     35       POPC     H14R     HAL2     0.900000E-01   1.00800           0
      4668 MEMB     35       POPC     H14S     HAL2     0.900000E-01   1.00800           0
      4669 MEMB     35       POPC     C215     CTL2    -0.180000       12.0110           0
      4670 MEMB     35       POPC     H15R     HAL2     0.900000E-01   1.00800           0
      4671 MEMB     35       POPC     H15S     HAL2     0.900000E-01   1.00800           0
      4672 MEMB     35       POPC     C216     CTL2    -0.180000       12.0110           0
      4673 MEMB     35       POPC     H16R     HAL2     0.900000E-01   1.00800           0
      4674 MEMB     35       POPC     H16S     HAL2     0.900000E-01   1.00800           0
      4675 MEMB     35       POPC     C217     CTL2    -0.180000       12.0110           0
      4676 MEMB     35       POPC     H17R     HAL2     0.900000E-01   1.00800           0
      4677 MEMB     35       POPC     H17S     HAL2     0.900000E-01   1.00800           0
      4678 MEMB     35       POPC     C218     CTL3    -0.270000       12.0110           0
      4679 MEMB     35       POPC     H18R     HAL3     0.900000E-01   1.00800           0
      4680 MEMB     35       POPC     H18S     HAL3     0.900000E-01   1.00800           0
      4681 MEMB     35       POPC     H18T     HAL3     0.900000E-01   1.00800           0
      4682 MEMB     35       POPC     C33      CTL2    -0.180000       12.0110           0
      4683 MEMB     35       POPC     H3X      HAL2     0.900000E-01   1.00800           0
      4684 MEMB     35       POPC     H3Y      HAL2     0.900000E-01   1.00800           0
      4685 MEMB     35       POPC     C34      CTL2    -0.180000       12.0110           0
      4686 MEMB     35       POPC     H4X      HAL2     0.900000E-01   1.00800           0
      4687 MEMB     35       POPC     H4Y      HAL2     0.900000E-01   1.00800           0
      4688 MEMB     35       POPC     C35      CTL2    -0.180000       12.0110           0
      4689 MEMB     35       POPC     H5X      HAL2     0.900000E-01   1.00800           0
      4690 MEMB     35       POPC     H5Y      HAL2     0.900000E-01   1.00800           0
      4691 MEMB     35       POPC     C36      CTL2    -0.180000       12.0110           0
      4692 MEMB     35       POPC     H6X      HAL2     0.900000E-01   1.00800           0
      4693 MEMB     35       POPC     H6Y      HAL2     0.900000E-01   1.00800           0
      4694 MEMB     35       POPC     C37      CTL2    -0.180000       12.0110           0
      4695 MEMB     35       POPC     H7X      HAL2     0.900000E-01   1.00800           0
      4696 MEMB     35       POPC     H7Y      HAL2     0.900000E-01   1.00800           0
      4697 MEMB     35       POPC     C38      CTL2    -0.180000       12.0110           0
      4698 MEMB     35       POPC     H8X      HAL2     0.900000E-01   1.00800           0
      4699 MEMB     35       POPC     H8Y      HAL2     0.900000E-01   1.00800           0
      4700 MEMB     35       POPC     C39      CTL2    -0.180000       12.0110           0
      4701 MEMB     35       POPC     H9X      HAL2     0.900000E-01   1.00800           0
      4702 MEMB     35       POPC     H9Y      HAL2     0.900000E-01   1.00800           0
      4703 MEMB     35       POPC     C310     CTL2    -0.180000       12.0110           0
      4704 MEMB     35       POPC     H10X     HAL2     0.900000E-01   1.00800           0
      4705 MEMB     35       POPC     H10Y     HAL2     0.900000E-01   1.00800           0
      4706 MEMB     35       POPC     C311     CTL2    -0.180000       12.0110           0
      4707 MEMB     35       POPC     H11X     HAL2     0.900000E-01   1.00800           0
      4708 MEMB     35       POPC     H11Y     HAL2     0.900000E-01   1.00800           0
      4709 MEMB     35       POPC     C312     CTL2    -0.180000       12.0110           0
      4710 MEMB     35       POPC     H12X     HAL2     0.900000E-01   1.00800           0
      4711 MEMB     35       POPC     H12Y     HAL2     0.900000E-01   1.00800           0
      4712 MEMB     35       POPC     C313     CTL2    -0.180000       12.0110           0
      4713 MEMB     35       POPC     H13X     HAL2     0.900000E-01   1.00800           0
      4714 MEMB     35       POPC     H13Y     HAL2     0.900000E-01   1.00800           0
      4715 MEMB     35       POPC     C314     CTL2    -0.180000       12.0110           0
      4716 MEMB     35       POPC     H14X     HAL2     0.900000E-01   1.00800           0
      4717 MEMB     35       POPC     H14Y     HAL2     0.900000E-01   1.00800           0
      4718 MEMB     35       POPC     C315     CTL2    -0.180000       12.0110           0
      4719 MEMB     35       POPC     H15X     HAL2     0.900000E-01   1.00800           0
      4720 MEMB     35       POPC     H15Y     HAL2     0.900000E-01   1.00800           0
      4721 MEMB     35       POPC     C316     CTL3    -0.270000       12.0110           0
      4722 MEMB     35       POPC     H16X     HAL3     0.900000E-01   1.00800           0
      4723 MEMB     35       POPC     H16Y     HAL3     0.900000E-01   1.00800           0
      4724 MEMB     35       POPC     H16Z     HAL3     0.900000E-01   1.00800           0
      4725 MEMB     36       POPC     N        NTL     -0.600000       14.0070           0
      4726 MEMB     36       POPC     C12      CTL2    -0.100000       12.0110           0
      4727 MEMB     36       POPC     H12A     HL       0.250000       1.00800           0
      4728 MEMB     36       POPC     H12B     HL       0.250000       1.00800           0
      4729 MEMB     36       POPC     C13      CTL5    -0.350000       12.0110           0
      4730 MEMB     36       POPC     H13A     HL       0.250000       1.00800           0
      4731 MEMB     36       POPC     H13B     HL       0.250000       1.00800           0
      4732 MEMB     36       POPC     H13C     HL       0.250000       1.00800           0
      4733 MEMB     36       POPC     C14      CTL5    -0.350000       12.0110           0
      4734 MEMB     36       POPC     H14A     HL       0.250000       1.00800           0
      4735 MEMB     36       POPC     H14B     HL       0.250000       1.00800           0
      4736 MEMB     36       POPC     H14C     HL       0.250000       1.00800           0
      4737 MEMB     36       POPC     C15      CTL5    -0.350000       12.0110           0
      4738 MEMB     36       POPC     H15A     HL       0.250000       1.00800           0
      4739 MEMB     36       POPC     H15B     HL       0.250000       1.00800           0
      4740 MEMB     36       POPC     H15C     HL       0.250000       1.00800           0
      4741 MEMB     36       POPC     C11      CTL2    -0.800000E-01   12.0110           0
      4742 MEMB     36       POPC     H11A     HAL2     0.900000E-01   1.00800           0
      4743 MEMB     36       POPC     H11B     HAL2     0.900000E-01   1.00800           0
      4744 MEMB     36       POPC     P        PL        1.50000       30.9740           0
      4745 MEMB     36       POPC     O13      O2L     -0.780000       15.9994           0
      4746 MEMB     36       POPC     O14      O2L     -0.780000       15.9994           0
      4747 MEMB     36       POPC     O12      OSLP    -0.570000       15.9994           0
      4748 MEMB     36       POPC     O11      OSLP    -0.570000       15.9994           0
      4749 MEMB     36       POPC     C1       CTL2    -0.800000E-01   12.0110           0
      4750 MEMB     36       POPC     HA       HAL2     0.900000E-01   1.00800           0
      4751 MEMB     36       POPC     HB       HAL2     0.900000E-01   1.00800           0
      4752 MEMB     36       POPC     C2       CTL1     0.170000       12.0110           0
      4753 MEMB     36       POPC     HS       HAL1     0.900000E-01   1.00800           0
      4754 MEMB     36       POPC     O21      OSL     -0.490000       15.9994           0
      4755 MEMB     36       POPC     C21      CL       0.900000       12.0110           0
      4756 MEMB     36       POPC     O22      OBL     -0.630000       15.9994           0
      4757 MEMB     36       POPC     C22      CTL2    -0.220000       12.0110           0
      4758 MEMB     36       POPC     H2R      HAL2     0.900000E-01   1.00800           0
      4759 MEMB     36       POPC     H2S      HAL2     0.900000E-01   1.00800           0
      4760 MEMB     36       POPC     C3       CTL2     0.800000E-01   12.0110           0
      4761 MEMB     36       POPC     HX       HAL2     0.900000E-01   1.00800           0
      4762 MEMB     36       POPC     HY       HAL2     0.900000E-01   1.00800           0
      4763 MEMB     36       POPC     O31      OSL     -0.490000       15.9994           0
      4764 MEMB     36       POPC     C31      CL       0.900000       12.0110           0
      4765 MEMB     36       POPC     O32      OBL     -0.630000       15.9994           0
      4766 MEMB     36       POPC     C32      CTL2    -0.220000       12.0110           0
      4767 MEMB     36       POPC     H2X      HAL2     0.900000E-01   1.00800           0
      4768 MEMB     36       POPC     H2Y      HAL2     0.900000E-01   1.00800           0
      4769 MEMB     36       POPC     C23      CTL2    -0.180000       12.0110           0
      4770 MEMB     36       POPC     H3R      HAL2     0.900000E-01   1.00800           0
      4771 MEMB     36       POPC     H3S      HAL2     0.900000E-01   1.00800           0
      4772 MEMB     36       POPC     C24      CTL2    -0.180000       12.0110           0
      4773 MEMB     36       POPC     H4R      HAL2     0.900000E-01   1.00800           0
      4774 MEMB     36       POPC     H4S      HAL2     0.900000E-01   1.00800           0
      4775 MEMB     36       POPC     C25      CTL2    -0.180000       12.0110           0
      4776 MEMB     36       POPC     H5R      HAL2     0.900000E-01   1.00800           0
      4777 MEMB     36       POPC     H5S      HAL2     0.900000E-01   1.00800           0
      4778 MEMB     36       POPC     C26      CTL2    -0.180000       12.0110           0
      4779 MEMB     36       POPC     H6R      HAL2     0.900000E-01   1.00800           0
      4780 MEMB     36       POPC     H6S      HAL2     0.900000E-01   1.00800           0
      4781 MEMB     36       POPC     C27      CTL2    -0.180000       12.0110           0
      4782 MEMB     36       POPC     H7R      HAL2     0.900000E-01   1.00800           0
      4783 MEMB     36       POPC     H7S      HAL2     0.900000E-01   1.00800           0
      4784 MEMB     36       POPC     C28      CTL2    -0.180000       12.0110           0
      4785 MEMB     36       POPC     H8R      HAL2     0.900000E-01   1.00800           0
      4786 MEMB     36       POPC     H8S      HAL2     0.900000E-01   1.00800           0
      4787 MEMB     36       POPC     C29      CEL1    -0.150000       12.0110           0
      4788 MEMB     36       POPC     H91      HEL1     0.150000       1.00800           0
      4789 MEMB     36       POPC     C210     CEL1    -0.150000       12.0110           0
      4790 MEMB     36       POPC     H101     HEL1     0.150000       1.00800           0
      4791 MEMB     36       POPC     C211     CTL2    -0.180000       12.0110           0
      4792 MEMB     36       POPC     H11R     HAL2     0.900000E-01   1.00800           0
      4793 MEMB     36       POPC     H11S     HAL2     0.900000E-01   1.00800           0
      4794 MEMB     36       POPC     C212     CTL2    -0.180000       12.0110           0
      4795 MEMB     36       POPC     H12R     HAL2     0.900000E-01   1.00800           0
      4796 MEMB     36       POPC     H12S     HAL2     0.900000E-01   1.00800           0
      4797 MEMB     36       POPC     C213     CTL2    -0.180000       12.0110           0
      4798 MEMB     36       POPC     H13R     HAL2     0.900000E-01   1.00800           0
      4799 MEMB     36       POPC     H13S     HAL2     0.900000E-01   1.00800           0
      4800 MEMB     36       POPC     C214     CTL2    -0.180000       12.0110           0
      4801 MEMB     36       POPC     H14R     HAL2     0.900000E-01   1.00800           0
      4802 MEMB     36       POPC     H14S     HAL2     0.900000E-01   1.00800           0
      4803 MEMB     36       POPC     C215     CTL2    -0.180000       12.0110           0
      4804 MEMB     36       POPC     H15R     HAL2     0.900000E-01   1.00800           0
      4805 MEMB     36       POPC     H15S     HAL2     0.900000E-01   1.00800           0
      4806 MEMB     36       POPC     C216     CTL2    -0.180000       12.0110           0
      4807 MEMB     36       POPC     H16R     HAL2     0.900000E-01   1.00800           0
      4808 MEMB     36       POPC     H16S     HAL2     0.900000E-01   1.00800           0
      4809 MEMB     36       POPC     C217     CTL2    -0.180000       12.0110           0
      4810 MEMB     36       POPC     H17R     HAL2     0.900000E-01   1.00800           0
      4811 MEMB     36       POPC     H17S     HAL2     0.900000E-01   1.00800           0
      4812 MEMB     36       POPC     C218     CTL3    -0.270000       12.0110           0
      4813 MEMB     36       POPC     H18R     HAL3     0.900000E-01   1.00800           0
      4814 MEMB     36       POPC     H18S     HAL3     0.900000E-01   1.00800           0
      4815 MEMB     36       POPC     H18T     HAL3     0.900000E-01   1.00800           0
      4816 MEMB     36       POPC     C33      CTL2    -0.180000       12.0110           0
      4817 MEMB     36       POPC     H3X      HAL2     0.900000E-01   1.00800           0
      4818 MEMB     36       POPC     H3Y      HAL2     0.900000E-01   1.00800           0
      4819 MEMB     36       POPC     C34      CTL2    -0.180000       12.0110           0
      4820 MEMB     36       POPC     H4X      HAL2     0.900000E-01   1.00800           0
      4821 MEMB     36       POPC     H4Y      HAL2     0.900000E-01   1.00800           0
      4822 MEMB     36       POPC     C35      CTL2    -0.180000       12.0110           0
      4823 MEMB     36       POPC     H5X      HAL2     0.900000E-01   1.00800           0
      4824 MEMB     36       POPC     H5Y      HAL2     0.900000E-01   1.00800           0
      4825 MEMB     36       POPC     C36      CTL2    -0.180000       12.0110           0
      4826 MEMB     36       POPC     H6X      HAL2     0.900000E-01   1.00800           0
      4827 MEMB     36       POPC     H6Y      HAL2     0.900000E-01   1.00800           0
      4828 MEMB     36       POPC     C37      CTL2    -0.180000       12.0110           0
      4829 MEMB     36       POPC     H7X      HAL2     0.900000E-01   1.00800           0
      4830 MEMB     36       POPC     H7Y      HAL2     0.900000E-01   1.00800           0
      4831 MEMB     36       POPC     C38      CTL2    -0.180000       12.0110           0
      4832 MEMB     36       POPC     H8X      HAL2     0.900000E-01   1.00800           0
      4833 MEMB     36       POPC     H8Y      HAL2     0.900000E-01   1.00800           0
      4834 MEMB     36       POPC     C39      CTL2    -0.180000       12.0110           0
      4835 MEMB     36       POPC     H9X      HAL2     0.900000E-01   1.00800           0
      4836 MEMB     36       POPC     H9Y      HAL2     0.900000E-01   1.00800           0
      4837 MEMB     36       POPC     C310     CTL2    -0.180000       12.0110           0
      4838 MEMB     36       POPC     H10X     HAL2     0.900000E-01   1.00800           0
      4839 MEMB     36       POPC     H10Y     HAL2     0.900000E-01   1.00800           0
      4840 MEMB     36       POPC     C311     CTL2    -0.180000       12.0110           0
      4841 MEMB     36       POPC     H11X     HAL2     0.900000E-01   1.00800           0
      4842 MEMB     36       POPC     H11Y     HAL2     0.900000E-01   1.00800           0
      4843 MEMB     36       POPC     C312     CTL2    -0.180000       12.0110           0
      4844 MEMB     36       POPC     H12X     HAL2     0.900000E-01   1.00800           0
      4845 MEMB     36       POPC     H12Y     HAL2     0.900000E-01   1.00800           0
      4846 MEMB     36       POPC     C313     CTL2    -0.180000       12.0110           0
      4847 MEMB     36       POPC     H13X     HAL2     0.900000E-01   1.00800           0
      4848 MEMB     36       POPC     H13Y     HAL2     0.900000E-01   1.00800           0
      4849 MEMB     36       POPC     C314     CTL2    -0.180000       12.0110           0
      4850 MEMB     36       POPC     H14X     HAL2     0.900000E-01   1.00800           0
      4851 MEMB     36       POPC     H14Y     HAL2     0.900000E-01   1.00800           0
      4852 MEMB     36       POPC     C315     CTL2    -0.180000       12.0110           0
      4853 MEMB     36       POPC     H15X     HAL2     0.900000E-01   1.00800           0
      4854 MEMB     36       POPC     H15Y     HAL2     0.900000E-01   1.00800           0
      4855 MEMB     36       POPC     C316     CTL3    -0.270000       12.0110           0
      4856 MEMB     36       POPC     H16X     HAL3     0.900000E-01   1.00800           0
      4857 MEMB     36       POPC     H16Y     HAL3     0.900000E-01   1.00800           0
      4858 MEMB     36       POPC     H16Z     HAL3     0.900000E-01   1.00800           0
      4859 MEMB     37       POPC     N        NTL     -0.600000       14.0070           0
      4860 MEMB     37       POPC     C12      CTL2    -0.100000       12.0110           0
      4861 MEMB     37       POPC     H12A     HL       0.250000       1.00800           0
      4862 MEMB     37       POPC     H12B     HL       0.250000       1.00800           0
      4863 MEMB     37       POPC     C13      CTL5    -0.350000       12.0110           0
      4864 MEMB     37       POPC     H13A     HL       0.250000       1.00800           0
      4865 MEMB     37       POPC     H13B     HL       0.250000       1.00800           0
      4866 MEMB     37       POPC     H13C     HL       0.250000       1.00800           0
      4867 MEMB     37       POPC     C14      CTL5    -0.350000       12.0110           0
      4868 MEMB     37       POPC     H14A     HL       0.250000       1.00800           0
      4869 MEMB     37       POPC     H14B     HL       0.250000       1.00800           0
      4870 MEMB     37       POPC     H14C     HL       0.250000       1.00800           0
      4871 MEMB     37       POPC     C15      CTL5    -0.350000       12.0110           0
      4872 MEMB     37       POPC     H15A     HL       0.250000       1.00800           0
      4873 MEMB     37       POPC     H15B     HL       0.250000       1.00800           0
      4874 MEMB     37       POPC     H15C     HL       0.250000       1.00800           0
      4875 MEMB     37       POPC     C11      CTL2    -0.800000E-01   12.0110           0
      4876 MEMB     37       POPC     H11A     HAL2     0.900000E-01   1.00800           0
      4877 MEMB     37       POPC     H11B     HAL2     0.900000E-01   1.00800           0
      4878 MEMB     37       POPC     P        PL        1.50000       30.9740           0
      4879 MEMB     37       POPC     O13      O2L     -0.780000       15.9994           0
      4880 MEMB     37       POPC     O14      O2L     -0.780000       15.9994           0
      4881 MEMB     37       POPC     O12      OSLP    -0.570000       15.9994           0
      4882 MEMB     37       POPC     O11      OSLP    -0.570000       15.9994           0
      4883 MEMB     37       POPC     C1       CTL2    -0.800000E-01   12.0110           0
      4884 MEMB     37       POPC     HA       HAL2     0.900000E-01   1.00800           0
      4885 MEMB     37       POPC     HB       HAL2     0.900000E-01   1.00800           0
      4886 MEMB     37       POPC     C2       CTL1     0.170000       12.0110           0
      4887 MEMB     37       POPC     HS       HAL1     0.900000E-01   1.00800           0
      4888 MEMB     37       POPC     O21      OSL     -0.490000       15.9994           0
      4889 MEMB     37       POPC     C21      CL       0.900000       12.0110           0
      4890 MEMB     37       POPC     O22      OBL     -0.630000       15.9994           0
      4891 MEMB     37       POPC     C22      CTL2    -0.220000       12.0110           0
      4892 MEMB     37       POPC     H2R      HAL2     0.900000E-01   1.00800           0
      4893 MEMB     37       POPC     H2S      HAL2     0.900000E-01   1.00800           0
      4894 MEMB     37       POPC     C3       CTL2     0.800000E-01   12.0110           0
      4895 MEMB     37       POPC     HX       HAL2     0.900000E-01   1.00800           0
      4896 MEMB     37       POPC     HY       HAL2     0.900000E-01   1.00800           0
      4897 MEMB     37       POPC     O31      OSL     -0.490000       15.9994           0
      4898 MEMB     37       POPC     C31      CL       0.900000       12.0110           0
      4899 MEMB     37       POPC     O32      OBL     -0.630000       15.9994           0
      4900 MEMB     37       POPC     C32      CTL2    -0.220000       12.0110           0
      4901 MEMB     37       POPC     H2X      HAL2     0.900000E-01   1.00800           0
      4902 MEMB     37       POPC     H2Y      HAL2     0.900000E-01   1.00800           0
      4903 MEMB     37       POPC     C23      CTL2    -0.180000       12.0110           0
      4904 MEMB     37       POPC     H3R      HAL2     0.900000E-01   1.00800           0
      4905 MEMB     37       POPC     H3S      HAL2     0.900000E-01   1.00800           0
      4906 MEMB     37       POPC     C24      CTL2    -0.180000       12.0110           0
      4907 MEMB     37       POPC     H4R      HAL2     0.900000E-01   1.00800           0
      4908 MEMB     37       POPC     H4S      HAL2     0.900000E-01   1.00800           0
      4909 MEMB     37       POPC     C25      CTL2    -0.180000       12.0110           0
      4910 MEMB     37       POPC     H5R      HAL2     0.900000E-01   1.00800           0
      4911 MEMB     37       POPC     H5S      HAL2     0.900000E-01   1.00800           0
      4912 MEMB     37       POPC     C26      CTL2    -0.180000       12.0110           0
      4913 MEMB     37       POPC     H6R      HAL2     0.900000E-01   1.00800           0
      4914 MEMB     37       POPC     H6S      HAL2     0.900000E-01   1.00800           0
      4915 MEMB     37       POPC     C27      CTL2    -0.180000       12.0110           0
      4916 MEMB     37       POPC     H7R      HAL2     0.900000E-01   1.00800           0
      4917 MEMB     37       POPC     H7S      HAL2     0.900000E-01   1.00800           0
      4918 MEMB     37       POPC     C28      CTL2    -0.180000       12.0110           0
      4919 MEMB     37       POPC     H8R      HAL2     0.900000E-01   1.00800           0
      4920 MEMB     37       POPC     H8S      HAL2     0.900000E-01   1.00800           0
      4921 MEMB     37       POPC     C29      CEL1    -0.150000       12.0110           0
      4922 MEMB     37       POPC     H91      HEL1     0.150000       1.00800           0
      4923 MEMB     37       POPC     C210     CEL1    -0.150000       12.0110           0
      4924 MEMB     37       POPC     H101     HEL1     0.150000       1.00800           0
      4925 MEMB     37       POPC     C211     CTL2    -0.180000       12.0110           0
      4926 MEMB     37       POPC     H11R     HAL2     0.900000E-01   1.00800           0
      4927 MEMB     37       POPC     H11S     HAL2     0.900000E-01   1.00800           0
      4928 MEMB     37       POPC     C212     CTL2    -0.180000       12.0110           0
      4929 MEMB     37       POPC     H12R     HAL2     0.900000E-01   1.00800           0
      4930 MEMB     37       POPC     H12S     HAL2     0.900000E-01   1.00800           0
      4931 MEMB     37       POPC     C213     CTL2    -0.180000       12.0110           0
      4932 MEMB     37       POPC     H13R     HAL2     0.900000E-01   1.00800           0
      4933 MEMB     37       POPC     H13S     HAL2     0.900000E-01   1.00800           0
      4934 MEMB     37       POPC     C214     CTL2    -0.180000       12.0110           0
      4935 MEMB     37       POPC     H14R     HAL2     0.900000E-01   1.00800           0
      4936 MEMB     37       POPC     H14S     HAL2     0.900000E-01   1.00800           0
      4937 MEMB     37       POPC     C215     CTL2    -0.180000       12.0110           0
      4938 MEMB     37       POPC     H15R     HAL2     0.900000E-01   1.00800           0
      4939 MEMB     37       POPC     H15S     HAL2     0.900000E-01   1.00800           0
      4940 MEMB     37       POPC     C216     CTL2    -0.180000       12.0110           0
      4941 MEMB     37       POPC     H16R     HAL2     0.900000E-01   1.00800           0
      4942 MEMB     37       POPC     H16S     HAL2     0.900000E-01   1.00800           0
      4943 MEMB     37       POPC     C217     CTL2    -0.180000       12.0110           0
      4944 MEMB     37       POPC     H17R     HAL2     0.900000E-01   1.00800           0
      4945 MEMB     37       POPC     H17S     HAL2     0.900000E-01   1.00800           0
      4946 MEMB     37       POPC     C218     CTL3    -0.270000       12.0110           0
      4947 MEMB     37       POPC     H18R     HAL3     0.900000E-01   1.00800           0
      4948 MEMB     37       POPC     H18S     HAL3     0.900000E-01   1.00800           0
      4949 MEMB     37       POPC     H18T     HAL3     0.900000E-01   1.00800           0
      4950 MEMB     37       POPC     C33      CTL2    -0.180000       12.0110           0
      4951 MEMB     37       POPC     H3X      HAL2     0.900000E-01   1.00800           0
      4952 MEMB     37       POPC     H3Y      HAL2     0.900000E-01   1.00800           0
      4953 MEMB     37       POPC     C34      CTL2    -0.180000       12.0110           0
      4954 MEMB     37       POPC     H4X      HAL2     0.900000E-01   1.00800           0
      4955 MEMB     37       POPC     H4Y      HAL2     0.900000E-01   1.00800           0
      4956 MEMB     37       POPC     C35      CTL2    -0.180000       12.0110           0
      4957 MEMB     37       POPC     H5X      HAL2     0.900000E-01   1.00800           0
      4958 MEMB     37       POPC     H5Y      HAL2     0.900000E-01   1.00800           0
      4959 MEMB     37       POPC     C36      CTL2    -0.180000       12.0110           0
      4960 MEMB     37       POPC     H6X      HAL2     0.900000E-01   1.00800           0
      4961 MEMB     37       POPC     H6Y      HAL2     0.900000E-01   1.00800           0
      4962 MEMB     37       POPC     C37      CTL2    -0.180000       12.0110           0
      4963 MEMB     37       POPC     H7X      HAL2     0.900000E-01   1.00800           0
      4964 MEMB     37       POPC     H7Y      HAL2     0.900000E-01   1.00800           0
      4965 MEMB     37       POPC     C38      CTL2    -0.180000       12.0110           0
      4966 MEMB     37       POPC     H8X      HAL2     0.900000E-01   1.00800           0
      4967 MEMB     37       POPC     H8Y      HAL2     0.900000E-01   1.00800           0
      4968 MEMB     37       POPC     C39      CTL2    -0.180000       12.0110           0
      4969 MEMB     37       POPC     H9X      HAL2     0.900000E-01   1.00800           0
      4970 MEMB     37       POPC     H9Y      HAL2     0.900000E-01   1.00800           0
      4971 MEMB     37       POPC     C310     CTL2    -0.180000       12.0110           0
      4972 MEMB     37       POPC     H10X     HAL2     0.900000E-01   1.00800           0
      4973 MEMB     37       POPC     H10Y     HAL2     0.900000E-01   1.00800           0
      4974 MEMB     37       POPC     C311     CTL2    -0.180000       12.0110           0
      4975 MEMB     37       POPC     H11X     HAL2     0.900000E-01   1.00800           0
      4976 MEMB     37       POPC     H11Y     HAL2     0.900000E-01   1.00800           0
      4977 MEMB     37       POPC     C312     CTL2    -0.180000       12.0110           0
      4978 MEMB     37       POPC     H12X     HAL2     0.900000E-01   1.00800           0
      4979 MEMB     37       POPC     H12Y     HAL2     0.900000E-01   1.00800           0
      4980 MEMB     37       POPC     C313     CTL2    -0.180000       12.0110           0
      4981 MEMB     37       POPC     H13X     HAL2     0.900000E-01   1.00800           0
      4982 MEMB     37       POPC     H13Y     HAL2     0.900000E-01   1.00800           0
      4983 MEMB     37       POPC     C314     CTL2    -0.180000       12.0110           0
      4984 MEMB     37       POPC     H14X     HAL2     0.900000E-01   1.00800           0
      4985 MEMB     37       POPC     H14Y     HAL2     0.900000E-01   1.00800           0
      4986 MEMB     37       POPC     C315     CTL2    -0.180000       12.0110           0
      4987 MEMB     37       POPC     H15X     HAL2     0.900000E-01   1.00800           0
      4988 MEMB     37       POPC     H15Y     HAL2     0.900000E-01   1.00800           0
      4989 MEMB     37       POPC     C316     CTL3    -0.270000       12.0110           0
      4990 MEMB     37       POPC     H16X     HAL3     0.900000E-01   1.00800           0
      4991 MEMB     37       POPC     H16Y     HAL3     0.900000E-01   1.00800           0
      4992 MEMB     37       POPC     H16Z     HAL3     0.900000E-01   1.00800           0
      4993 MEMB     38       POPC     N        NTL     -0.600000       14.0070           0
      4994 MEMB     38       POPC     C12      CTL2    -0.100000       12.0110           0
      4995 MEMB     38       POPC     H12A     HL       0.250000       1.00800           0
      4996 MEMB     38       POPC     H12B     HL       0.250000       1.00800           0
      4997 MEMB     38       POPC     C13      CTL5    -0.350000       12.0110           0
      4998 MEMB     38       POPC     H13A     HL       0.250000       1.00800           0
      4999 MEMB     38       POPC     H13B     HL       0.250000       1.00800           0
      5000 MEMB     38       POPC     H13C     HL       0.250000       1.00800           0
      5001 MEMB     38       POPC     C14      CTL5    -0.350000       12.0110           0
      5002 MEMB     38       POPC     H14A     HL       0.250000       1.00800           0
      5003 MEMB     38       POPC     H14B     HL       0.250000       1.00800           0
      5004 MEMB     38       POPC     H14C     HL       0.250000       1.00800           0
      5005 MEMB     38       POPC     C15      CTL5    -0.350000       12.0110           0
      5006 MEMB     38       POPC     H15A     HL       0.250000       1.00800           0
      5007 MEMB     38       POPC     H15B     HL       0.250000       1.00800           0
      5008 MEMB     38       POPC     H15C     HL       0.250000       1.00800           0
      5009 MEMB     38       POPC     C11      CTL2    -0.800000E-01   12.0110           0
      5010 MEMB     38       POPC     H11A     HAL2     0.900000E-01   1.00800           0
      5011 MEMB     38       POPC     H11B     HAL2     0.900000E-01   1.00800           0
      5012 MEMB     38       POPC     P        PL        1.50000       30.9740           0
      5013 MEMB     38       POPC     O13      O2L     -0.780000       15.9994           0
      5014 MEMB     38       POPC     O14      O2L     -0.780000       15.9994           0
      5015 MEMB     38       POPC     O12      OSLP    -0.570000       15.9994           0
      5016 MEMB     38       POPC     O11      OSLP    -0.570000       15.9994           0
      5017 MEMB     38       POPC     C1       CTL2    -0.800000E-01   12.0110           0
      5018 MEMB     38       POPC     HA       HAL2     0.900000E-01   1.00800           0
      5019 MEMB     38       POPC     HB       HAL2     0.900000E-01   1.00800           0
      5020 MEMB     38       POPC     C2       CTL1     0.170000       12.0110           0
      5021 MEMB     38       POPC     HS       HAL1     0.900000E-01   1.00800           0
      5022 MEMB     38       POPC     O21      OSL     -0.490000       15.9994           0
      5023 MEMB     38       POPC     C21      CL       0.900000       12.0110           0
      5024 MEMB     38       POPC     O22      OBL     -0.630000       15.9994           0
      5025 MEMB     38       POPC     C22      CTL2    -0.220000       12.0110           0
      5026 MEMB     38       POPC     H2R      HAL2     0.900000E-01   1.00800           0
      5027 MEMB     38       POPC     H2S      HAL2     0.900000E-01   1.00800           0
      5028 MEMB     38       POPC     C3       CTL2     0.800000E-01   12.0110           0
      5029 MEMB     38       POPC     HX       HAL2     0.900000E-01   1.00800           0
      5030 MEMB     38       POPC     HY       HAL2     0.900000E-01   1.00800           0
      5031 MEMB     38       POPC     O31      OSL     -0.490000       15.9994           0
      5032 MEMB     38       POPC     C31      CL       0.900000       12.0110           0
      5033 MEMB     38       POPC     O32      OBL     -0.630000       15.9994           0
      5034 MEMB     38       POPC     C32      CTL2    -0.220000       12.0110           0
      5035 MEMB     38       POPC     H2X      HAL2     0.900000E-01   1.00800           0
      5036 MEMB     38       POPC     H2Y      HAL2     0.900000E-01   1.00800           0
      5037 MEMB     38       POPC     C23      CTL2    -0.180000       12.0110           0
      5038 MEMB     38       POPC     H3R      HAL2     0.900000E-01   1.00800           0
      5039 MEMB     38       POPC     H3S      HAL2     0.900000E-01   1.00800           0
      5040 MEMB     38       POPC     C24      CTL2    -0.180000       12.0110           0
      5041 MEMB     38       POPC     H4R      HAL2     0.900000E-01   1.00800           0
      5042 MEMB     38       POPC     H4S      HAL2     0.900000E-01   1.00800           0
      5043 MEMB     38       POPC     C25      CTL2    -0.180000       12.0110           0
      5044 MEMB     38       POPC     H5R      HAL2     0.900000E-01   1.00800           0
      5045 MEMB     38       POPC     H5S      HAL2     0.900000E-01   1.00800           0
      5046 MEMB     38       POPC     C26      CTL2    -0.180000       12.0110           0
      5047 MEMB     38       POPC     H6R      HAL2     0.900000E-01   1.00800           0
      5048 MEMB     38       POPC     H6S      HAL2     0.900000E-01   1.00800           0
      5049 MEMB     38       POPC     C27      CTL2    -0.180000       12.0110           0
      5050 MEMB     38       POPC     H7R      HAL2     0.900000E-01   1.00800           0
      5051 MEMB     38       POPC     H7S      HAL2     0.900000E-01   1.00800           0
      5052 MEMB     38       POPC     C28      CTL2    -0.180000       12.0110           0
      5053 MEMB     38       POPC     H8R      HAL2     0.900000E-01   1.00800           0
      5054 MEMB     38       POPC     H8S      HAL2     0.900000E-01   1.00800           0
      5055 MEMB     38       POPC     C29      CEL1    -0.150000       12.0110           0
      5056 MEMB     38       POPC     H91      HEL1     0.150000       1.00800           0
      5057 MEMB     38       POPC     C210     CEL1    -0.150000       12.0110           0
      5058 MEMB     38       POPC     H101     HEL1     0.150000       1.00800           0
      5059 MEMB     38       POPC     C211     CTL2    -0.180000       12.0110           0
      5060 MEMB     38       POPC     H11R     HAL2     0.900000E-01   1.00800           0
      5061 MEMB     38       POPC     H11S     HAL2     0.900000E-01   1.00800           0
      5062 MEMB     38       POPC     C212     CTL2    -0.180000       12.0110           0
      5063 MEMB     38       POPC     H12R     HAL2     0.900000E-01   1.00800           0
      5064 MEMB     38       POPC     H12S     HAL2     0.900000E-01   1.00800           0
      5065 MEMB     38       POPC     C213     CTL2    -0.180000       12.0110           0
      5066 MEMB     38       POPC     H13R     HAL2     0.900000E-01   1.00800           0
      5067 MEMB     38       POPC     H13S     HAL2     0.900000E-01   1.00800           0
      5068 MEMB     38       POPC     C214     CTL2    -0.180000       12.0110           0
      5069 MEMB     38       POPC     H14R     HAL2     0.900000E-01   1.00800           0
      5070 MEMB     38       POPC     H14S     HAL2     0.900000E-01   1.00800           0
      5071 MEMB     38       POPC     C215     CTL2    -0.180000       12.0110           0
      5072 MEMB     38       POPC     H15R     HAL2     0.900000E-01   1.00800           0
      5073 MEMB     38       POPC     H15S     HAL2     0.900000E-01   1.00800           0
      5074 MEMB     38       POPC     C216     CTL2    -0.180000       12.0110           0
      5075 MEMB     38       POPC     H16R     HAL2     0.900000E-01   1.00800           0
      5076 MEMB     38       POPC     H16S     HAL2     0.900000E-01   1.00800           0
      5077 MEMB     38       POPC     C217     CTL2    -0.180000       12.0110           0
      5078 MEMB     38       POPC     H17R     HAL2     0.900000E-01   1.00800           0
      5079 MEMB     38       POPC     H17S     HAL2     0.900000E-01   1.00800           0
      5080 MEMB     38       POPC     C218     CTL3    -0.270000       12.0110           0
      5081 MEMB     38       POPC     H18R     HAL3     0.900000E-01   1.00800           0
      5082 MEMB     38       POPC     H18S     HAL3     0.900000E-01   1.00800           0
      5083 MEMB     38       POPC     H18T     HAL3     0.900000E-01   1.00800           0
      5084 MEMB     38       POPC     C33      CTL2    -0.180000       12.0110           0
      5085 MEMB     38       POPC     H3X      HAL2     0.900000E-01   1.00800           0
      5086 MEMB     38       POPC     H3Y      HAL2     0.900000E-01   1.00800           0
      5087 MEMB     38       POPC     C34      CTL2    -0.180000       12.0110           0
      5088 MEMB     38       POPC     H4X      HAL2     0.900000E-01   1.00800           0
      5089 MEMB     38       POPC     H4Y      HAL2     0.900000E-01   1.00800           0
      5090 MEMB     38       POPC     C35      CTL2    -0.180000       12.0110           0
      5091 MEMB     38       POPC     H5X      HAL2     0.900000E-01   1.00800           0
      5092 MEMB     38       POPC     H5Y      HAL2     0.900000E-01   1.00800           0
      5093 MEMB     38       POPC     C36      CTL2    -0.180000       12.0110           0
      5094 MEMB     38       POPC     H6X      HAL2     0.900000E-01   1.00800           0
      5095 MEMB     38       POPC     H6Y      HAL2     0.900000E-01   1.00800           0
      5096 MEMB     38       POPC     C37      CTL2    -0.180000       12.0110           0
      5097 MEMB     38       POPC     H7X      HAL2     0.900000E-01   1.00800           0
      5098 MEMB     38       POPC     H7Y      HAL2     0.900000E-01   1.00800           0
      5099 MEMB     38       POPC     C38      CTL2    -0.180000       12.0110           0
      5100 MEMB     38       POPC     H8X      HAL2     0.900000E-01   1.00800           0
      5101 MEMB     38       POPC     H8Y      HAL2     0.900000E-01   1.00800           0
      5102 MEMB     38       POPC     C39      CTL2    -0.180000       12.0110           0
      5103 MEMB     38       POPC     H9X      HAL2     0.900000E-01   1.00800           0
      5104 MEMB     38       POPC     H9Y      HAL2     0.900000E-01   1.00800           0
      5105 MEMB     38       POPC     C310     CTL2    -0.180000       12.0110           0
      5106 MEMB     38       POPC     H10X     HAL2     0.900000E-01   1.00800           0
      5107 MEMB     38       POPC     H10Y     HAL2     0.900000E-01   1.00800           0
      5108 MEMB     38       POPC     C311     CTL2    -0.180000       12.0110           0
      5109 MEMB     38       POPC     H11X     HAL2     0.900000E-01   1.00800           0
      5110 MEMB     38       POPC     H11Y     HAL2     0.900000E-01   1.00800           0
      5111 MEMB     38       POPC     C312     CTL2    -0.180000       12.0110           0
      5112 MEMB     38       POPC     H12X     HAL2     0.900000E-01   1.00800           0
      5113 MEMB     38       POPC     H12Y     HAL2     0.900000E-01   1.00800           0
      5114 MEMB     38       POPC     C313     CTL2    -0.180000       12.0110           0
      5115 MEMB     38       POPC     H13X     HAL2     0.900000E-01   1.00800           0
      5116 MEMB     38       POPC     H13Y     HAL2     0.900000E-01   1.00800           0
      5117 MEMB     38       POPC     C314     CTL2    -0.180000       12.0110           0
      5118 MEMB     38       POPC     H14X     HAL2     0.900000E-01   1.00800           0
      5119 MEMB     38       POPC     H14Y     HAL2     0.900000E-01   1.00800           0
      5120 MEMB     38       POPC     C315     CTL2    -0.180000       12.0110           0
      5121 MEMB     38       POPC     H15X     HAL2     0.900000E-01   1.00800           0
      5122 MEMB     38       POPC     H15Y     HAL2     0.900000E-01   1.00800           0
      5123 MEMB     38       POPC     C316     CTL3    -0.270000       12.0110           0
      5124 MEMB     38       POPC     H16X     HAL3     0.900000E-01   1.00800           0
      5125 MEMB     38       POPC     H16Y     HAL3     0.900000E-01   1.00800           0
      5126 MEMB     38       POPC     H16Z     HAL3     0.900000E-01   1.00800           0
      5127 MEMB     39       POPC     N        NTL     -0.600000       14.0070           0
      5128 MEMB     39       POPC     C12      CTL2    -0.100000       12.0110           0
      5129 MEMB     39       POPC     H12A     HL       0.250000       1.00800           0
      5130 MEMB     39       POPC     H12B     HL       0.250000       1.00800           0
      5131 MEMB     39       POPC     C13      CTL5    -0.350000       12.0110           0
      5132 MEMB     39       POPC     H13A     HL       0.250000       1.00800           0
      5133 MEMB     39       POPC     H13B     HL       0.250000       1.00800           0
      5134 MEMB     39       POPC     H13C     HL       0.250000       1.00800           0
      5135 MEMB     39       POPC     C14      CTL5    -0.350000       12.0110           0
      5136 MEMB     39       POPC     H14A     HL       0.250000       1.00800           0
      5137 MEMB     39       POPC     H14B     HL       0.250000       1.00800           0
      5138 MEMB     39       POPC     H14C     HL       0.250000       1.00800           0
      5139 MEMB     39       POPC     C15      CTL5    -0.350000       12.0110           0
      5140 MEMB     39       POPC     H15A     HL       0.250000       1.00800           0
      5141 MEMB     39       POPC     H15B     HL       0.250000       1.00800           0
      5142 MEMB     39       POPC     H15C     HL       0.250000       1.00800           0
      5143 MEMB     39       POPC     C11      CTL2    -0.800000E-01   12.0110           0
      5144 MEMB     39       POPC     H11A     HAL2     0.900000E-01   1.00800           0
      5145 MEMB     39       POPC     H11B     HAL2     0.900000E-01   1.00800           0
      5146 MEMB     39       POPC     P        PL        1.50000       30.9740           0
      5147 MEMB     39       POPC     O13      O2L     -0.780000       15.9994           0
      5148 MEMB     39       POPC     O14      O2L     -0.780000       15.9994           0
      5149 MEMB     39       POPC     O12      OSLP    -0.570000       15.9994           0
      5150 MEMB     39       POPC     O11      OSLP    -0.570000       15.9994           0
      5151 MEMB     39       POPC     C1       CTL2    -0.800000E-01   12.0110           0
      5152 MEMB     39       POPC     HA       HAL2     0.900000E-01   1.00800           0
      5153 MEMB     39       POPC     HB       HAL2     0.900000E-01   1.00800           0
      5154 MEMB     39       POPC     C2       CTL1     0.170000       12.0110           0
      5155 MEMB     39       POPC     HS       HAL1     0.900000E-01   1.00800           0
      5156 MEMB     39       POPC     O21      OSL     -0.490000       15.9994           0
      5157 MEMB     39       POPC     C21      CL       0.900000       12.0110           0
      5158 MEMB     39       POPC     O22      OBL     -0.630000       15.9994           0
      5159 MEMB     39       POPC     C22      CTL2    -0.220000       12.0110           0
      5160 MEMB     39       POPC     H2R      HAL2     0.900000E-01   1.00800           0
      5161 MEMB     39       POPC     H2S      HAL2     0.900000E-01   1.00800           0
      5162 MEMB     39       POPC     C3       CTL2     0.800000E-01   12.0110           0
      5163 MEMB     39       POPC     HX       HAL2     0.900000E-01   1.00800           0
      5164 MEMB     39       POPC     HY       HAL2     0.900000E-01   1.00800           0
      5165 MEMB     39       POPC     O31      OSL     -0.490000       15.9994           0
      5166 MEMB     39       POPC     C31      CL       0.900000       12.0110           0
      5167 MEMB     39       POPC     O32      OBL     -0.630000       15.9994           0
      5168 MEMB     39       POPC     C32      CTL2    -0.220000       12.0110           0
      5169 MEMB     39       POPC     H2X      HAL2     0.900000E-01   1.00800           0
      5170 MEMB     39       POPC     H2Y      HAL2     0.900000E-01   1.00800           0
      5171 MEMB     39       POPC     C23      CTL2    -0.180000       12.0110           0
      5172 MEMB     39       POPC     H3R      HAL2     0.900000E-01   1.00800           0
      5173 MEMB     39       POPC     H3S      HAL2     0.900000E-01   1.00800           0
      5174 MEMB     39       POPC     C24      CTL2    -0.180000       12.0110           0
      5175 MEMB     39       POPC     H4R      HAL2     0.900000E-01   1.00800           0
      5176 MEMB     39       POPC     H4S      HAL2     0.900000E-01   1.00800           0
      5177 MEMB     39       POPC     C25      CTL2    -0.180000       12.0110           0
      5178 MEMB     39       POPC     H5R      HAL2     0.900000E-01   1.00800           0
      5179 MEMB     39       POPC     H5S      HAL2     0.900000E-01   1.00800           0
      5180 MEMB     39       POPC     C26      CTL2    -0.180000       12.0110           0
      5181 MEMB     39       POPC     H6R      HAL2     0.900000E-01   1.00800           0
      5182 MEMB     39       POPC     H6S      HAL2     0.900000E-01   1.00800           0
      5183 MEMB     39       POPC     C27      CTL2    -0.180000       12.0110           0
      5184 MEMB     39       POPC     H7R      HAL2     0.900000E-01   1.00800           0
      5185 MEMB     39       POPC     H7S      HAL2     0.900000E-01   1.00800           0
      5186 MEMB     39       POPC     C28      CTL2    -0.180000       12.0110           0
      5187 MEMB     39       POPC     H8R      HAL2     0.900000E-01   1.00800           0
      5188 MEMB     39       POPC     H8S      HAL2     0.900000E-01   1.00800           0
      5189 MEMB     39       POPC     C29      CEL1    -0.150000       12.0110           0
      5190 MEMB     39       POPC     H91      HEL1     0.150000       1.00800           0
      5191 MEMB     39       POPC     C210     CEL1    -0.150000       12.0110           0
      5192 MEMB     39       POPC     H101     HEL1     0.150000       1.00800           0
      5193 MEMB     39       POPC     C211     CTL2    -0.180000       12.0110           0
      5194 MEMB     39       POPC     H11R     HAL2     0.900000E-01   1.00800           0
      5195 MEMB     39       POPC     H11S     HAL2     0.900000E-01   1.00800           0
      5196 MEMB     39       POPC     C212     CTL2    -0.180000       12.0110           0
      5197 MEMB     39       POPC     H12R     HAL2     0.900000E-01   1.00800           0
      5198 MEMB     39       POPC     H12S     HAL2     0.900000E-01   1.00800           0
      5199 MEMB     39       POPC     C213     CTL2    -0.180000       12.0110           0
      5200 MEMB     39       POPC     H13R     HAL2     0.900000E-01   1.00800           0
      5201 MEMB     39       POPC     H13S     HAL2     0.900000E-01   1.00800           0
      5202 MEMB     39       POPC     C214     CTL2    -0.180000       12.0110           0
      5203 MEMB     39       POPC     H14R     HAL2     0.900000E-01   1.00800           0
      5204 MEMB     39       POPC     H14S     HAL2     0.900000E-01   1.00800           0
      5205 MEMB     39       POPC     C215     CTL2    -0.180000       12.0110           0
      5206 MEMB     39       POPC     H15R     HAL2     0.900000E-01   1.00800           0
      5207 MEMB     39       POPC     H15S     HAL2     0.900000E-01   1.00800           0
      5208 MEMB     39       POPC     C216     CTL2    -0.180000       12.0110           0
      5209 MEMB     39       POPC     H16R     HAL2     0.900000E-01   1.00800           0
      5210 MEMB     39       POPC     H16S     HAL2     0.900000E-01   1.00800           0
      5211 MEMB     39       POPC     C217     CTL2    -0.180000       12.0110           0
      5212 MEMB     39       POPC     H17R     HAL2     0.900000E-01   1.00800           0
      5213 MEMB     39       POPC     H17S     HAL2     0.900000E-01   1.00800           0
      5214 MEMB     39       POPC     C218     CTL3    -0.270000       12.0110           0
      5215 MEMB     39       POPC     H18R     HAL3     0.900000E-01   1.00800           0
      5216 MEMB     39       POPC     H18S     HAL3     0.900000E-01   1.00800           0
      5217 MEMB     39       POPC     H18T     HAL3     0.900000E-01   1.00800           0
      5218 MEMB     39       POPC     C33      CTL2    -0.180000       12.0110           0
      5219 MEMB     39       POPC     H3X      HAL2     0.900000E-01   1.00800           0
      5220 MEMB     39       POPC     H3Y      HAL2     0.900000E-01   1.00800           0
      5221 MEMB     39       POPC     C34      CTL2    -0.180000       12.0110           0
      5222 MEMB     39       POPC     H4X      HAL2     0.900000E-01   1.00800           0
      5223 MEMB     39       POPC     H4Y      HAL2     0.900000E-01   1.00800           0
      5224 MEMB     39       POPC     C35      CTL2    -0.180000       12.0110           0
      5225 MEMB     39       POPC     H5X      HAL2     0.900000E-01   1.00800           0
      5226 MEMB     39       POPC     H5Y      HAL2     0.900000E-01   1.00800           0
      5227 MEMB     39       POPC     C36      CTL2    -0.180000       12.0110           0
      5228 MEMB     39       POPC     H6X      HAL2     0.900000E-01   1.00800           0
      5229 MEMB     39       POPC     H6Y      HAL2     0.900000E-01   1.00800           0
      5230 MEMB     39       POPC     C37      CTL2    -0.180000       12.0110           0
      5231 MEMB     39       POPC     H7X      HAL2     0.900000E-01   1.00800           0
      5232 MEMB     39       POPC     H7Y      HAL2     0.900000E-01   1.00800           0
      5233 MEMB     39       POPC     C38      CTL2    -0.180000       12.0110           0
      5234 MEMB     39       POPC     H8X      HAL2     0.900000E-01   1.00800           0
      5235 MEMB     39       POPC     H8Y      HAL2     0.900000E-01   1.00800           0
      5236 MEMB     39       POPC     C39      CTL2    -0.180000       12.0110           0
      5237 MEMB     39       POPC     H9X      HAL2     0.900000E-01   1.00800           0
      5238 MEMB     39       POPC     H9Y      HAL2     0.900000E-01   1.00800           0
      5239 MEMB     39       POPC     C310     CTL2    -0.180000       12.0110           0
      5240 MEMB     39       POPC     H10X     HAL2     0.900000E-01   1.00800           0
      5241 MEMB     39       POPC     H10Y     HAL2     0.900000E-01   1.00800           0
      5242 MEMB     39       POPC     C311     CTL2    -0.180000       12.0110           0
      5243 MEMB     39       POPC     H11X     HAL2     0.900000E-01   1.00800           0
      5244 MEMB     39       POPC     H11Y     HAL2     0.900000E-01   1.00800           0
      5245 MEMB     39       POPC     C312     CTL2    -0.180000       12.0110           0
      5246 MEMB     39       POPC     H12X     HAL2     0.900000E-01   1.00800           0
      5247 MEMB     39       POPC     H12Y     HAL2     0.900000E-01   1.00800           0
      5248 MEMB     39       POPC     C313     CTL2    -0.180000       12.0110           0
      5249 MEMB     39       POPC     H13X     HAL2     0.900000E-01   1.00800           0
      5250 MEMB     39       POPC     H13Y     HAL2     0.900000E-01   1.00800           0
      5251 MEMB     39       POPC     C314     CTL2    -0.180000       12.0110           0
      5252 MEMB     39       POPC     H14X     HAL2     0.900000E-01   1.00800           0
      5253 MEMB     39       POPC     H14Y     HAL2     0.900000E-01   1.00800           0
      5254 MEMB     39       POPC     C315     CTL2    -0.180000       12.0110           0
      5255 MEMB     39       POPC     H15X     HAL2     0.900000E-01   1.00800           0
      5256 MEMB     39       POPC     H15Y     HAL2     0.900000E-01   1.00800           0
      5257 MEMB     39       POPC     C316     CTL3    -0.270000       12.0110           0
      5258 MEMB     39       POPC     H16X     HAL3     0.900000E-01   1.00800           0
      5259 MEMB     39       POPC     H16Y     HAL3     0.900000E-01   1.00800           0
      5260 MEMB     39       POPC     H16Z     HAL3     0.900000E-01   1.00800           0
      5261 MEMB     40       POPC     N        NTL     -0.600000       14.0070           0
      5262 MEMB     40       POPC     C12      CTL2    -0.100000       12.0110           0
      5263 MEMB     40       POPC     H12A     HL       0.250000       1.00800           0
      5264 MEMB     40       POPC     H12B     HL       0.250000       1.00800           0
      5265 MEMB     40       POPC     C13      CTL5    -0.350000       12.0110           0
      5266 MEMB     40       POPC     H13A     HL       0.250000       1.00800           0
      5267 MEMB     40       POPC     H13B     HL       0.250000       1.00800           0
      5268 MEMB     40       POPC     H13C     HL       0.250000       1.00800           0
      5269 MEMB     40       POPC     C14      CTL5    -0.350000       12.0110           0
      5270 MEMB     40       POPC     H14A     HL       0.250000       1.00800           0
      5271 MEMB     40       POPC     H14B     HL       0.250000       1.00800           0
      5272 MEMB     40       POPC     H14C     HL       0.250000       1.00800           0
      5273 MEMB     40       POPC     C15      CTL5    -0.350000       12.0110           0
      5274 MEMB     40       POPC     H15A     HL       0.250000       1.00800           0
      5275 MEMB     40       POPC     H15B     HL       0.250000       1.00800           0
      5276 MEMB     40       POPC     H15C     HL       0.250000       1.00800           0
      5277 MEMB     40       POPC     C11      CTL2    -0.800000E-01   12.0110           0
      5278 MEMB     40       POPC     H11A     HAL2     0.900000E-01   1.00800           0
      5279 MEMB     40       POPC     H11B     HAL2     0.900000E-01   1.00800           0
      5280 MEMB     40       POPC     P        PL        1.50000       30.9740           0
      5281 MEMB     40       POPC     O13      O2L     -0.780000       15.9994           0
      5282 MEMB     40       POPC     O14      O2L     -0.780000       15.9994           0
      5283 MEMB     40       POPC     O12      OSLP    -0.570000       15.9994           0
      5284 MEMB     40       POPC     O11      OSLP    -0.570000       15.9994           0
      5285 MEMB     40       POPC     C1       CTL2    -0.800000E-01   12.0110           0
      5286 MEMB     40       POPC     HA       HAL2     0.900000E-01   1.00800           0
      5287 MEMB     40       POPC     HB       HAL2     0.900000E-01   1.00800           0
      5288 MEMB     40       POPC     C2       CTL1     0.170000       12.0110           0
      5289 MEMB     40       POPC     HS       HAL1     0.900000E-01   1.00800           0
      5290 MEMB     40       POPC     O21      OSL     -0.490000       15.9994           0
      5291 MEMB     40       POPC     C21      CL       0.900000       12.0110           0
      5292 MEMB     40       POPC     O22      OBL     -0.630000       15.9994           0
      5293 MEMB     40       POPC     C22      CTL2    -0.220000       12.0110           0
      5294 MEMB     40       POPC     H2R      HAL2     0.900000E-01   1.00800           0
      5295 MEMB     40       POPC     H2S      HAL2     0.900000E-01   1.00800           0
      5296 MEMB     40       POPC     C3       CTL2     0.800000E-01   12.0110           0
      5297 MEMB     40       POPC     HX       HAL2     0.900000E-01   1.00800           0
      5298 MEMB     40       POPC     HY       HAL2     0.900000E-01   1.00800           0
      5299 MEMB     40       POPC     O31      OSL     -0.490000       15.9994           0
      5300 MEMB     40       POPC     C31      CL       0.900000       12.0110           0
      5301 MEMB     40       POPC     O32      OBL     -0.630000       15.9994           0
      5302 MEMB     40       POPC     C32      CTL2    -0.220000       12.0110           0
      5303 MEMB     40       POPC     H2X      HAL2     0.900000E-01   1.00800           0
      5304 MEMB     40       POPC     H2Y      HAL2     0.900000E-01   1.00800           0
      5305 MEMB     40       POPC     C23      CTL2    -0.180000       12.0110           0
      5306 MEMB     40       POPC     H3R      HAL2     0.900000E-01   1.00800           0
      5307 MEMB     40       POPC     H3S      HAL2     0.900000E-01   1.00800           0
      5308 MEMB     40       POPC     C24      CTL2    -0.180000       12.0110           0
      5309 MEMB     40       POPC     H4R      HAL2     0.900000E-01   1.00800           0
      5310 MEMB     40       POPC     H4S      HAL2     0.900000E-01   1.00800           0
      5311 MEMB     40       POPC     C25      CTL2    -0.180000       12.0110           0
      5312 MEMB     40       POPC     H5R      HAL2     0.900000E-01   1.00800           0
      5313 MEMB     40       POPC     H5S      HAL2     0.900000E-01   1.00800           0
      5314 MEMB     40       POPC     C26      CTL2    -0.180000       12.0110           0
      5315 MEMB     40       POPC     H6R      HAL2     0.900000E-01   1.00800           0
      5316 MEMB     40       POPC     H6S      HAL2     0.900000E-01   1.00800           0
      5317 MEMB     40       POPC     C27      CTL2    -0.180000       12.0110           0
      5318 MEMB     40       POPC     H7R      HAL2     0.900000E-01   1.00800           0
      5319 MEMB     40       POPC     H7S      HAL2     0.900000E-01   1.00800           0
      5320 MEMB     40       POPC     C28      CTL2    -0.180000       12.0110           0
      5321 MEMB     40       POPC     H8R      HAL2     0.900000E-01   1.00800           0
      5322 MEMB     40       POPC     H8S      HAL2     0.900000E-01   1.00800           0
      5323 MEMB     40       POPC     C29      CEL1    -0.150000       12.0110           0
      5324 MEMB     40       POPC     H91      HEL1     0.150000       1.00800           0
      5325 MEMB     40       POPC     C210     CEL1    -0.150000       12.0110           0
      5326 MEMB     40       POPC     H101     HEL1     0.150000       1.00800           0
      5327 MEMB     40       POPC     C211     CTL2    -0.180000       12.0110           0
      5328 MEMB     40       POPC     H11R     HAL2     0.900000E-01   1.00800           0
      5329 MEMB     40       POPC     H11S     HAL2     0.900000E-01   1.00800           0
      5330 MEMB     40       POPC     C212     CTL2    -0.180000       12.0110           0
      5331 MEMB     40       POPC     H12R     HAL2     0.900000E-01   1.00800           0
      5332 MEMB     40       POPC     H12S     HAL2     0.900000E-01   1.00800           0
      5333 MEMB     40       POPC     C213     CTL2    -0.180000       12.0110           0
      5334 MEMB     40       POPC     H13R     HAL2     0.900000E-01   1.00800           0
      5335 MEMB     40       POPC     H13S     HAL2     0.900000E-01   1.00800           0
      5336 MEMB     40       POPC     C214     CTL2    -0.180000       12.0110           0
      5337 MEMB     40       POPC     H14R     HAL2     0.900000E-01   1.00800           0
      5338 MEMB     40       POPC     H14S     HAL2     0.900000E-01   1.00800           0
      5339 MEMB     40       POPC     C215     CTL2    -0.180000       12.0110           0
      5340 MEMB     40       POPC     H15R     HAL2     0.900000E-01   1.00800           0
      5341 MEMB     40       POPC     H15S     HAL2     0.900000E-01   1.00800           0
      5342 MEMB     40       POPC     C216     CTL2    -0.180000       12.0110           0
      5343 MEMB     40       POPC     H16R     HAL2     0.900000E-01   1.00800           0
      5344 MEMB     40       POPC     H16S     HAL2     0.900000E-01   1.00800           0
      5345 MEMB     40       POPC     C217     CTL2    -0.180000       12.0110           0
      5346 MEMB     40       POPC     H17R     HAL2     0.900000E-01   1.00800           0
      5347 MEMB     40       POPC     H17S     HAL2     0.900000E-01   1.00800           0
      5348 MEMB     40       POPC     C218     CTL3    -0.270000       12.0110           0
      5349 MEMB     40       POPC     H18R     HAL3     0.900000E-01   1.00800           0
      5350 MEMB     40       POPC     H18S     HAL3     0.900000E-01   1.00800           0
      5351 MEMB     40       POPC     H18T     HAL3     0.900000E-01   1.00800           0
      5352 MEMB     40       POPC     C33      CTL2    -0.180000       12.0110           0
      5353 MEMB     40       POPC     H3X      HAL2     0.900000E-01   1.00800           0
      5354 MEMB     40       POPC     H3Y      HAL2     0.900000E-01   1.00800           0
      5355 MEMB     40       POPC     C34      CTL2    -0.180000       12.0110           0
      5356 MEMB     40       POPC     H4X      HAL2     0.900000E-01   1.00800           0
      5357 MEMB     40       POPC     H4Y      HAL2     0.900000E-01   1.00800           0
      5358 MEMB     40       POPC     C35      CTL2    -0.180000       12.0110           0
      5359 MEMB     40       POPC     H5X      HAL2     0.900000E-01   1.00800           0
      5360 MEMB     40       POPC     H5Y      HAL2     0.900000E-01   1.00800           0
      5361 MEMB     40       POPC     C36      CTL2    -0.180000       12.0110           0
      5362 MEMB     40       POPC     H6X      HAL2     0.900000E-01   1.00800           0
      5363 MEMB     40       POPC     H6Y      HAL2     0.900000E-01   1.00800           0
      5364 MEMB     40       POPC     C37      CTL2    -0.180000       12.0110           0
      5365 MEMB     40       POPC     H7X      HAL2     0.900000E-01   1.00800           0
      5366 MEMB     40       POPC     H7Y      HAL2     0.900000E-01   1.00800           0
      5367 MEMB     40       POPC     C38      CTL2    -0.180000       12.0110           0
      5368 MEMB     40       POPC     H8X      HAL2     0.900000E-01   1.00800           0
      5369 MEMB     40       POPC     H8Y      HAL2     0.900000E-01   1.00800           0
      5370 MEMB     40       POPC     C39      CTL2    -0.180000       12.0110           0
      5371 MEMB     40       POPC     H9X      HAL2     0.900000E-01   1.00800           0
      5372 MEMB     40       POPC     H9Y      HAL2     0.900000E-01   1.00800           0
      5373 MEMB     40       POPC     C310     CTL2    -0.180000       12.0110           0
      5374 MEMB     40       POPC     H10X     HAL2     0.900000E-01   1.00800           0
      5375 MEMB     40       POPC     H10Y     HAL2     0.900000E-01   1.00800           0
      5376 MEMB     40       POPC     C311     CTL2    -0.180000       12.0110           0
      5377 MEMB     40       POPC     H11X     HAL2     0.900000E-01   1.00800           0
      5378 MEMB     40       POPC     H11Y     HAL2     0.900000E-01   1.00800           0
      5379 MEMB     40       POPC     C312     CTL2    -0.180000       12.0110           0
      5380 MEMB     40       POPC     H12X     HAL2     0.900000E-01   1.00800           0
      5381 MEMB     40       POPC     H12Y     HAL2     0.900000E-01   1.00800           0
      5382 MEMB     40       POPC     C313     CTL2    -0.180000       12.0110           0
      5383 MEMB     40       POPC     H13X     HAL2     0.900000E-01   1.00800           0
      5384 MEMB     40       POPC     H13Y     HAL2     0.900000E-01   1.00800           0
      5385 MEMB     40       POPC     C314     CTL2    -0.180000       12.0110           0
      5386 MEMB     40       POPC     H14X     HAL2     0.900000E-01   1.00800           0
      5387 MEMB     40       POPC     H14Y     HAL2     0.900000E-01   1.00800           0
      5388 MEMB     40       POPC     C315     CTL2    -0.180000       12.0110           0
      5389 MEMB     40       POPC     H15X     HAL2     0.900000E-01   1.00800           0
      5390 MEMB     40       POPC     H15Y     HAL2     0.900000E-01   1.00800           0
      5391 MEMB     40       POPC     C316     CTL3    -0.270000       12.0110           0
      5392 MEMB     40       POPC     H16X     HAL3     0.900000E-01   1.00800           0
      5393 MEMB     40       POPC     H16Y     HAL3     0.900000E-01   1.00800           0
      5394 MEMB     40       POPC     H16Z     HAL3     0.900000E-01   1.00800           0
      5395 MEMB     41       POPC     N        NTL     -0.600000       14.0070           0
      5396 MEMB     41       POPC     C12      CTL2    -0.100000       12.0110           0
      5397 MEMB     41       POPC     H12A     HL       0.250000       1.00800           0
      5398 MEMB     41       POPC     H12B     HL       0.250000       1.00800           0
      5399 MEMB     41       POPC     C13      CTL5    -0.350000       12.0110           0
      5400 MEMB     41       POPC     H13A     HL       0.250000       1.00800           0
      5401 MEMB     41       POPC     H13B     HL       0.250000       1.00800           0
      5402 MEMB     41       POPC     H13C     HL       0.250000       1.00800           0
      5403 MEMB     41       POPC     C14      CTL5    -0.350000       12.0110           0
      5404 MEMB     41       POPC     H14A     HL       0.250000       1.00800           0
      5405 MEMB     41       POPC     H14B     HL       0.250000       1.00800           0
      5406 MEMB     41       POPC     H14C     HL       0.250000       1.00800           0
      5407 MEMB     41       POPC     C15      CTL5    -0.350000       12.0110           0
      5408 MEMB     41       POPC     H15A     HL       0.250000       1.00800           0
      5409 MEMB     41       POPC     H15B     HL       0.250000       1.00800           0
      5410 MEMB     41       POPC     H15C     HL       0.250000       1.00800           0
      5411 MEMB     41       POPC     C11      CTL2    -0.800000E-01   12.0110           0
      5412 MEMB     41       POPC     H11A     HAL2     0.900000E-01   1.00800           0
      5413 MEMB     41       POPC     H11B     HAL2     0.900000E-01   1.00800           0
      5414 MEMB     41       POPC     P        PL        1.50000       30.9740           0
      5415 MEMB     41       POPC     O13      O2L     -0.780000       15.9994           0
      5416 MEMB     41       POPC     O14      O2L     -0.780000       15.9994           0
      5417 MEMB     41       POPC     O12      OSLP    -0.570000       15.9994           0
      5418 MEMB     41       POPC     O11      OSLP    -0.570000       15.9994           0
      5419 MEMB     41       POPC     C1       CTL2    -0.800000E-01   12.0110           0
      5420 MEMB     41       POPC     HA       HAL2     0.900000E-01   1.00800           0
      5421 MEMB     41       POPC     HB       HAL2     0.900000E-01   1.00800           0
      5422 MEMB     41       POPC     C2       CTL1     0.170000       12.0110           0
      5423 MEMB     41       POPC     HS       HAL1     0.900000E-01   1.00800           0
      5424 MEMB     41       POPC     O21      OSL     -0.490000       15.9994           0
      5425 MEMB     41       POPC     C21      CL       0.900000       12.0110           0
      5426 MEMB     41       POPC     O22      OBL     -0.630000       15.9994           0
      5427 MEMB     41       POPC     C22      CTL2    -0.220000       12.0110           0
      5428 MEMB     41       POPC     H2R      HAL2     0.900000E-01   1.00800           0
      5429 MEMB     41       POPC     H2S      HAL2     0.900000E-01   1.00800           0
      5430 MEMB     41       POPC     C3       CTL2     0.800000E-01   12.0110           0
      5431 MEMB     41       POPC     HX       HAL2     0.900000E-01   1.00800           0
      5432 MEMB     41       POPC     HY       HAL2     0.900000E-01   1.00800           0
      5433 MEMB     41       POPC     O31      OSL     -0.490000       15.9994           0
      5434 MEMB     41       POPC     C31      CL       0.900000       12.0110           0
      5435 MEMB     41       POPC     O32      OBL     -0.630000       15.9994           0
      5436 MEMB     41       POPC     C32      CTL2    -0.220000       12.0110           0
      5437 MEMB     41       POPC     H2X      HAL2     0.900000E-01   1.00800           0
      5438 MEMB     41       POPC     H2Y      HAL2     0.900000E-01   1.00800           0
      5439 MEMB     41       POPC     C23      CTL2    -0.180000       12.0110           0
      5440 MEMB     41       POPC     H3R      HAL2     0.900000E-01   1.00800           0
      5441 MEMB     41       POPC     H3S      HAL2     0.900000E-01   1.00800           0
      5442 MEMB     41       POPC     C24      CTL2    -0.180000       12.0110           0
      5443 MEMB     41       POPC     H4R      HAL2     0.900000E-01   1.00800           0
      5444 MEMB     41       POPC     H4S      HAL2     0.900000E-01   1.00800           0
      5445 MEMB     41       POPC     C25      CTL2    -0.180000       12.0110           0
      5446 MEMB     41       POPC     H5R      HAL2     0.900000E-01   1.00800           0
      5447 MEMB     41       POPC     H5S      HAL2     0.900000E-01   1.00800           0
      5448 MEMB     41       POPC     C26      CTL2    -0.180000       12.0110           0
      5449 MEMB     41       POPC     H6R      HAL2     0.900000E-01   1.00800           0
      5450 MEMB     41       POPC     H6S      HAL2     0.900000E-01   1.00800           0
      5451 MEMB     41       POPC     C27      CTL2    -0.180000       12.0110           0
      5452 MEMB     41       POPC     H7R      HAL2     0.900000E-01   1.00800           0
      5453 MEMB     41       POPC     H7S      HAL2     0.900000E-01   1.00800           0
      5454 MEMB     41       POPC     C28      CTL2    -0.180000       12.0110           0
      5455 MEMB     41       POPC     H8R      HAL2     0.900000E-01   1.00800           0
      5456 MEMB     41       POPC     H8S      HAL2     0.900000E-01   1.00800           0
      5457 MEMB     41       POPC     C29      CEL1    -0.150000       12.0110           0
      5458 MEMB     41       POPC     H91      HEL1     0.150000       1.00800           0
      5459 MEMB     41       POPC     C210     CEL1    -0.150000       12.0110           0
      5460 MEMB     41       POPC     H101     HEL1     0.150000       1.00800           0
      5461 MEMB     41       POPC     C211     CTL2    -0.180000       12.0110           0
      5462 MEMB     41       POPC     H11R     HAL2     0.900000E-01   1.00800           0
      5463 MEMB     41       POPC     H11S     HAL2     0.900000E-01   1.00800           0
      5464 MEMB     41       POPC     C212     CTL2    -0.180000       12.0110           0
      5465 MEMB     41       POPC     H12R     HAL2     0.900000E-01   1.00800           0
      5466 MEMB     41       POPC     H12S     HAL2     0.900000E-01   1.00800           0
      5467 MEMB     41       POPC     C213     CTL2    -0.180000       12.0110           0
      5468 MEMB     41       POPC     H13R     HAL2     0.900000E-01   1.00800           0
      5469 MEMB     41       POPC     H13S     HAL2     0.900000E-01   1.00800           0
      5470 MEMB     41       POPC     C214     CTL2    -0.180000       12.0110           0
      5471 MEMB     41       POPC     H14R     HAL2     0.900000E-01   1.00800           0
      5472 MEMB     41       POPC     H14S     HAL2     0.900000E-01   1.00800           0
      5473 MEMB     41       POPC     C215     CTL2    -0.180000       12.0110           0
      5474 MEMB     41       POPC     H15R     HAL2     0.900000E-01   1.00800           0
      5475 MEMB     41       POPC     H15S     HAL2     0.900000E-01   1.00800           0
      5476 MEMB     41       POPC     C216     CTL2    -0.180000       12.0110           0
      5477 MEMB     41       POPC     H16R     HAL2     0.900000E-01   1.00800           0
      5478 MEMB     41       POPC     H16S     HAL2     0.900000E-01   1.00800           0
      5479 MEMB     41       POPC     C217     CTL2    -0.180000       12.0110           0
      5480 MEMB     41       POPC     H17R     HAL2     0.900000E-01   1.00800           0
      5481 MEMB     41       POPC     H17S     HAL2     0.900000E-01   1.00800           0
      5482 MEMB     41       POPC     C218     CTL3    -0.270000       12.0110           0
      5483 MEMB     41       POPC     H18R     HAL3     0.900000E-01   1.00800           0
      5484 MEMB     41       POPC     H18S     HAL3     0.900000E-01   1.00800           0
      5485 MEMB     41       POPC     H18T     HAL3     0.900000E-01   1.00800           0
      5486 MEMB     41       POPC     C33      CTL2    -0.180000       12.0110           0
      5487 MEMB     41       POPC     H3X      HAL2     0.900000E-01   1.00800           0
      5488 MEMB     41       POPC     H3Y      HAL2     0.900000E-01   1.00800           0
      5489 MEMB     41       POPC     C34      CTL2    -0.180000       12.0110           0
      5490 MEMB     41       POPC     H4X      HAL2     0.900000E-01   1.00800           0
      5491 MEMB     41       POPC     H4Y      HAL2     0.900000E-01   1.00800           0
      5492 MEMB     41       POPC     C35      CTL2    -0.180000       12.0110           0
      5493 MEMB     41       POPC     H5X      HAL2     0.900000E-01   1.00800           0
      5494 MEMB     41       POPC     H5Y      HAL2     0.900000E-01   1.00800           0
      5495 MEMB     41       POPC     C36      CTL2    -0.180000       12.0110           0
      5496 MEMB     41       POPC     H6X      HAL2     0.900000E-01   1.00800           0
      5497 MEMB     41       POPC     H6Y      HAL2     0.900000E-01   1.00800           0
      5498 MEMB     41       POPC     C37      CTL2    -0.180000       12.0110           0
      5499 MEMB     41       POPC     H7X      HAL2     0.900000E-01   1.00800           0
      5500 MEMB     41       POPC     H7Y      HAL2     0.900000E-01   1.00800           0
      5501 MEMB     41       POPC     C38      CTL2    -0.180000       12.0110           0
      5502 MEMB     41       POPC     H8X      HAL2     0.900000E-01   1.00800           0
      5503 MEMB     41       POPC     H8Y      HAL2     0.900000E-01   1.00800           0
      5504 MEMB     41       POPC     C39      CTL2    -0.180000       12.0110           0
      5505 MEMB     41       POPC     H9X      HAL2     0.900000E-01   1.00800           0
      5506 MEMB     41       POPC     H9Y      HAL2     0.900000E-01   1.00800           0
      5507 MEMB     41       POPC     C310     CTL2    -0.180000       12.0110           0
      5508 MEMB     41       POPC     H10X     HAL2     0.900000E-01   1.00800           0
      5509 MEMB     41       POPC     H10Y     HAL2     0.900000E-01   1.00800           0
      5510 MEMB     41       POPC     C311     CTL2    -0.180000       12.0110           0
      5511 MEMB     41       POPC     H11X     HAL2     0.900000E-01   1.00800           0
      5512 MEMB     41       POPC     H11Y     HAL2     0.900000E-01   1.00800           0
      5513 MEMB     41       POPC     C312     CTL2    -0.180000       12.0110           0
      5514 MEMB     41       POPC     H12X     HAL2     0.900000E-01   1.00800           0
      5515 MEMB     41       POPC     H12Y     HAL2     0.900000E-01   1.00800           0
      5516 MEMB     41       POPC     C313     CTL2    -0.180000       12.0110           0
      5517 MEMB     41       POPC     H13X     HAL2     0.900000E-01   1.00800           0
      5518 MEMB     41       POPC     H13Y     HAL2     0.900000E-01   1.00800           0
      5519 MEMB     41       POPC     C314     CTL2    -0.180000       12.0110           0
      5520 MEMB     41       POPC     H14X     HAL2     0.900000E-01   1.00800           0
      5521 MEMB     41       POPC     H14Y     HAL2     0.900000E-01   1.00800           0
      5522 MEMB     41       POPC     C315     CTL2    -0.180000       12.0110           0
      5523 MEMB     41       POPC     H15X     HAL2     0.900000E-01   1.00800           0
      5524 MEMB     41       POPC     H15Y     HAL2     0.900000E-01   1.00800           0
      5525 MEMB     41       POPC     C316     CTL3    -0.270000       12.0110           0
      5526 MEMB     41       POPC     H16X     HAL3     0.900000E-01   1.00800           0
      5527 MEMB     41       POPC     H16Y     HAL3     0.900000E-01   1.00800           0
      5528 MEMB     41       POPC     H16Z     HAL3     0.900000E-01   1.00800           0
      5529 MEMB     42       POPC     N        NTL     -0.600000       14.0070           0
      5530 MEMB     42       POPC     C12      CTL2    -0.100000       12.0110           0
      5531 MEMB     42       POPC     H12A     HL       0.250000       1.00800           0
      5532 MEMB     42       POPC     H12B     HL       0.250000       1.00800           0
      5533 MEMB     42       POPC     C13      CTL5    -0.350000       12.0110           0
      5534 MEMB     42       POPC     H13A     HL       0.250000       1.00800           0
      5535 MEMB     42       POPC     H13B     HL       0.250000       1.00800           0
      5536 MEMB     42       POPC     H13C     HL       0.250000       1.00800           0
      5537 MEMB     42       POPC     C14      CTL5    -0.350000       12.0110           0
      5538 MEMB     42       POPC     H14A     HL       0.250000       1.00800           0
      5539 MEMB     42       POPC     H14B     HL       0.250000       1.00800           0
      5540 MEMB     42       POPC     H14C     HL       0.250000       1.00800           0
      5541 MEMB     42       POPC     C15      CTL5    -0.350000       12.0110           0
      5542 MEMB     42       POPC     H15A     HL       0.250000       1.00800           0
      5543 MEMB     42       POPC     H15B     HL       0.250000       1.00800           0
      5544 MEMB     42       POPC     H15C     HL       0.250000       1.00800           0
      5545 MEMB     42       POPC     C11      CTL2    -0.800000E-01   12.0110           0
      5546 MEMB     42       POPC     H11A     HAL2     0.900000E-01   1.00800           0
      5547 MEMB     42       POPC     H11B     HAL2     0.900000E-01   1.00800           0
      5548 MEMB     42       POPC     P        PL        1.50000       30.9740           0
      5549 MEMB     42       POPC     O13      O2L     -0.780000       15.9994           0
      5550 MEMB     42       POPC     O14      O2L     -0.780000       15.9994           0
      5551 MEMB     42       POPC     O12      OSLP    -0.570000       15.9994           0
      5552 MEMB     42       POPC     O11      OSLP    -0.570000       15.9994           0
      5553 MEMB     42       POPC     C1       CTL2    -0.800000E-01   12.0110           0
      5554 MEMB     42       POPC     HA       HAL2     0.900000E-01   1.00800           0
      5555 MEMB     42       POPC     HB       HAL2     0.900000E-01   1.00800           0
      5556 MEMB     42       POPC     C2       CTL1     0.170000       12.0110           0
      5557 MEMB     42       POPC     HS       HAL1     0.900000E-01   1.00800           0
      5558 MEMB     42       POPC     O21      OSL     -0.490000       15.9994           0
      5559 MEMB     42       POPC     C21      CL       0.900000       12.0110           0
      5560 MEMB     42       POPC     O22      OBL     -0.630000       15.9994           0
      5561 MEMB     42       POPC     C22      CTL2    -0.220000       12.0110           0
      5562 MEMB     42       POPC     H2R      HAL2     0.900000E-01   1.00800           0
      5563 MEMB     42       POPC     H2S      HAL2     0.900000E-01   1.00800           0
      5564 MEMB     42       POPC     C3       CTL2     0.800000E-01   12.0110           0
      5565 MEMB     42       POPC     HX       HAL2     0.900000E-01   1.00800           0
      5566 MEMB     42       POPC     HY       HAL2     0.900000E-01   1.00800           0
      5567 MEMB     42       POPC     O31      OSL     -0.490000       15.9994           0
      5568 MEMB     42       POPC     C31      CL       0.900000       12.0110           0
      5569 MEMB     42       POPC     O32      OBL     -0.630000       15.9994           0
      5570 MEMB     42       POPC     C32      CTL2    -0.220000       12.0110           0
      5571 MEMB     42       POPC     H2X      HAL2     0.900000E-01   1.00800           0
      5572 MEMB     42       POPC     H2Y      HAL2     0.900000E-01   1.00800           0
      5573 MEMB     42       POPC     C23      CTL2    -0.180000       12.0110           0
      5574 MEMB     42       POPC     H3R      HAL2     0.900000E-01   1.00800           0
      5575 MEMB     42       POPC     H3S      HAL2     0.900000E-01   1.00800           0
      5576 MEMB     42       POPC     C24      CTL2    -0.180000       12.0110           0
      5577 MEMB     42       POPC     H4R      HAL2     0.900000E-01   1.00800           0
      5578 MEMB     42       POPC     H4S      HAL2     0.900000E-01   1.00800           0
      5579 MEMB     42       POPC     C25      CTL2    -0.180000       12.0110           0
      5580 MEMB     42       POPC     H5R      HAL2     0.900000E-01   1.00800           0
      5581 MEMB     42       POPC     H5S      HAL2     0.900000E-01   1.00800           0
      5582 MEMB     42       POPC     C26      CTL2    -0.180000       12.0110           0
      5583 MEMB     42       POPC     H6R      HAL2     0.900000E-01   1.00800           0
      5584 MEMB     42       POPC     H6S      HAL2     0.900000E-01   1.00800           0
      5585 MEMB     42       POPC     C27      CTL2    -0.180000       12.0110           0
      5586 MEMB     42       POPC     H7R      HAL2     0.900000E-01   1.00800           0
      5587 MEMB     42       POPC     H7S      HAL2     0.900000E-01   1.00800           0
      5588 MEMB     42       POPC     C28      CTL2    -0.180000       12.0110           0
      5589 MEMB     42       POPC     H8R      HAL2     0.900000E-01   1.00800           0
      5590 MEMB     42       POPC     H8S      HAL2     0.900000E-01   1.00800           0
      5591 MEMB     42       POPC     C29      CEL1    -0.150000       12.0110           0
      5592 MEMB     42       POPC     H91      HEL1     0.150000       1.00800           0
      5593 MEMB     42       POPC     C210     CEL1    -0.150000       12.0110           0
      5594 MEMB     42       POPC     H101     HEL1     0.150000       1.00800           0
      5595 MEMB     42       POPC     C211     CTL2    -0.180000       12.0110           0
      5596 MEMB     42       POPC     H11R     HAL2     0.900000E-01   1.00800           0
      5597 MEMB     42       POPC     H11S     HAL2     0.900000E-01   1.00800           0
      5598 MEMB     42       POPC     C212     CTL2    -0.180000       12.0110           0
      5599 MEMB     42       POPC     H12R     HAL2     0.900000E-01   1.00800           0
      5600 MEMB     42       POPC     H12S     HAL2     0.900000E-01   1.00800           0
      5601 MEMB     42       POPC     C213     CTL2    -0.180000       12.0110           0
      5602 MEMB     42       POPC     H13R     HAL2     0.900000E-01   1.00800           0
      5603 MEMB     42       POPC     H13S     HAL2     0.900000E-01   1.00800           0
      5604 MEMB     42       POPC     C214     CTL2    -0.180000       12.0110           0
      5605 MEMB     42       POPC     H14R     HAL2     0.900000E-01   1.00800           0
      5606 MEMB     42       POPC     H14S     HAL2     0.900000E-01   1.00800           0
      5607 MEMB     42       POPC     C215     CTL2    -0.180000       12.0110           0
      5608 MEMB     42       POPC     H15R     HAL2     0.900000E-01   1.00800           0
      5609 MEMB     42       POPC     H15S     HAL2     0.900000E-01   1.00800           0
      5610 MEMB     42       POPC     C216     CTL2    -0.180000       12.0110           0
      5611 MEMB     42       POPC     H16R     HAL2     0.900000E-01   1.00800           0
      5612 MEMB     42       POPC     H16S     HAL2     0.900000E-01   1.00800           0
      5613 MEMB     42       POPC     C217     CTL2    -0.180000       12.0110           0
      5614 MEMB     42       POPC     H17R     HAL2     0.900000E-01   1.00800           0
      5615 MEMB     42       POPC     H17S     HAL2     0.900000E-01   1.00800           0
      5616 MEMB     42       POPC     C218     CTL3    -0.270000       12.0110           0
      5617 MEMB     42       POPC     H18R     HAL3     0.900000E-01   1.00800           0
      5618 MEMB     42       POPC     H18S     HAL3     0.900000E-01   1.00800           0
      5619 MEMB     42       POPC     H18T     HAL3     0.900000E-01   1.00800           0
      5620 MEMB     42       POPC     C33      CTL2    -0.180000       12.0110           0
      5621 MEMB     42       POPC     H3X      HAL2     0.900000E-01   1.00800           0
      5622 MEMB     42       POPC     H3Y      HAL2     0.900000E-01   1.00800           0
      5623 MEMB     42       POPC     C34      CTL2    -0.180000       12.0110           0
      5624 MEMB     42       POPC     H4X      HAL2     0.900000E-01   1.00800           0
      5625 MEMB     42       POPC     H4Y      HAL2     0.900000E-01   1.00800           0
      5626 MEMB     42       POPC     C35      CTL2    -0.180000       12.0110           0
      5627 MEMB     42       POPC     H5X      HAL2     0.900000E-01   1.00800           0
      5628 MEMB     42       POPC     H5Y      HAL2     0.900000E-01   1.00800           0
      5629 MEMB     42       POPC     C36      CTL2    -0.180000       12.0110           0
      5630 MEMB     42       POPC     H6X      HAL2     0.900000E-01   1.00800           0
      5631 MEMB     42       POPC     H6Y      HAL2     0.900000E-01   1.00800           0
      5632 MEMB     42       POPC     C37      CTL2    -0.180000       12.0110           0
      5633 MEMB     42       POPC     H7X      HAL2     0.900000E-01   1.00800           0
      5634 MEMB     42       POPC     H7Y      HAL2     0.900000E-01   1.00800           0
      5635 MEMB     42       POPC     C38      CTL2    -0.180000       12.0110           0
      5636 MEMB     42       POPC     H8X      HAL2     0.900000E-01   1.00800           0
      5637 MEMB     42       POPC     H8Y      HAL2     0.900000E-01   1.00800           0
      5638 MEMB     42       POPC     C39      CTL2    -0.180000       12.0110           0
      5639 MEMB     42       POPC     H9X      HAL2     0.900000E-01   1.00800           0
      5640 MEMB     42       POPC     H9Y      HAL2     0.900000E-01   1.00800           0
      5641 MEMB     42       POPC     C310     CTL2    -0.180000       12.0110           0
      5642 MEMB     42       POPC     H10X     HAL2     0.900000E-01   1.00800           0
      5643 MEMB     42       POPC     H10Y     HAL2     0.900000E-01   1.00800           0
      5644 MEMB     42       POPC     C311     CTL2    -0.180000       12.0110           0
      5645 MEMB     42       POPC     H11X     HAL2     0.900000E-01   1.00800           0
      5646 MEMB     42       POPC     H11Y     HAL2     0.900000E-01   1.00800           0
      5647 MEMB     42       POPC     C312     CTL2    -0.180000       12.0110           0
      5648 MEMB     42       POPC     H12X     HAL2     0.900000E-01   1.00800           0
      5649 MEMB     42       POPC     H12Y     HAL2     0.900000E-01   1.00800           0
      5650 MEMB     42       POPC     C313     CTL2    -0.180000       12.0110           0
      5651 MEMB     42       POPC     H13X     HAL2     0.900000E-01   1.00800           0
      5652 MEMB     42       POPC     H13Y     HAL2     0.900000E-01   1.00800           0
      5653 MEMB     42       POPC     C314     CTL2    -0.180000       12.0110           0
      5654 MEMB     42       POPC     H14X     HAL2     0.900000E-01   1.00800           0
      5655 MEMB     42       POPC     H14Y     HAL2     0.900000E-01   1.00800           0
      5656 MEMB     42       POPC     C315     CTL2    -0.180000       12.0110           0
      5657 MEMB     42       POPC     H15X     HAL2     0.900000E-01   1.00800           0
      5658 MEMB     42       POPC     H15Y     HAL2     0.900000E-01   1.00800           0
      5659 MEMB     42       POPC     C316     CTL3    -0.270000       12.0110           0
      5660 MEMB     42       POPC     H16X     HAL3     0.900000E-01   1.00800           0
      5661 MEMB     42       POPC     H16Y     HAL3     0.900000E-01   1.00800           0
      5662 MEMB     42       POPC     H16Z     HAL3     0.900000E-01   1.00800           0
      5663 MEMB     43       POPC     N        NTL     -0.600000       14.0070           0
      5664 MEMB     43       POPC     C12      CTL2    -0.100000       12.0110           0
      5665 MEMB     43       POPC     H12A     HL       0.250000       1.00800           0
      5666 MEMB     43       POPC     H12B     HL       0.250000       1.00800           0
      5667 MEMB     43       POPC     C13      CTL5    -0.350000       12.0110           0
      5668 MEMB     43       POPC     H13A     HL       0.250000       1.00800           0
      5669 MEMB     43       POPC     H13B     HL       0.250000       1.00800           0
      5670 MEMB     43       POPC     H13C     HL       0.250000       1.00800           0
      5671 MEMB     43       POPC     C14      CTL5    -0.350000       12.0110           0
      5672 MEMB     43       POPC     H14A     HL       0.250000       1.00800           0
      5673 MEMB     43       POPC     H14B     HL       0.250000       1.00800           0
      5674 MEMB     43       POPC     H14C     HL       0.250000       1.00800           0
      5675 MEMB     43       POPC     C15      CTL5    -0.350000       12.0110           0
      5676 MEMB     43       POPC     H15A     HL       0.250000       1.00800           0
      5677 MEMB     43       POPC     H15B     HL       0.250000       1.00800           0
      5678 MEMB     43       POPC     H15C     HL       0.250000       1.00800           0
      5679 MEMB     43       POPC     C11      CTL2    -0.800000E-01   12.0110           0
      5680 MEMB     43       POPC     H11A     HAL2     0.900000E-01   1.00800           0
      5681 MEMB     43       POPC     H11B     HAL2     0.900000E-01   1.00800           0
      5682 MEMB     43       POPC     P        PL        1.50000       30.9740           0
      5683 MEMB     43       POPC     O13      O2L     -0.780000       15.9994           0
      5684 MEMB     43       POPC     O14      O2L     -0.780000       15.9994           0
      5685 MEMB     43       POPC     O12      OSLP    -0.570000       15.9994           0
      5686 MEMB     43       POPC     O11      OSLP    -0.570000       15.9994           0
      5687 MEMB     43       POPC     C1       CTL2    -0.800000E-01   12.0110           0
      5688 MEMB     43       POPC     HA       HAL2     0.900000E-01   1.00800           0
      5689 MEMB     43       POPC     HB       HAL2     0.900000E-01   1.00800           0
      5690 MEMB     43       POPC     C2       CTL1     0.170000       12.0110           0
      5691 MEMB     43       POPC     HS       HAL1     0.900000E-01   1.00800           0
      5692 MEMB     43       POPC     O21      OSL     -0.490000       15.9994           0
      5693 MEMB     43       POPC     C21      CL       0.900000       12.0110           0
      5694 MEMB     43       POPC     O22      OBL     -0.630000       15.9994           0
      5695 MEMB     43       POPC     C22      CTL2    -0.220000       12.0110           0
      5696 MEMB     43       POPC     H2R      HAL2     0.900000E-01   1.00800           0
      5697 MEMB     43       POPC     H2S      HAL2     0.900000E-01   1.00800           0
      5698 MEMB     43       POPC     C3       CTL2     0.800000E-01   12.0110           0
      5699 MEMB     43       POPC     HX       HAL2     0.900000E-01   1.00800           0
      5700 MEMB     43       POPC     HY       HAL2     0.900000E-01   1.00800           0
      5701 MEMB     43       POPC     O31      OSL     -0.490000       15.9994           0
      5702 MEMB     43       POPC     C31      CL       0.900000       12.0110           0
      5703 MEMB     43       POPC     O32      OBL     -0.630000       15.9994           0
      5704 MEMB     43       POPC     C32      CTL2    -0.220000       12.0110           0
      5705 MEMB     43       POPC     H2X      HAL2     0.900000E-01   1.00800           0
      5706 MEMB     43       POPC     H2Y      HAL2     0.900000E-01   1.00800           0
      5707 MEMB     43       POPC     C23      CTL2    -0.180000       12.0110           0
      5708 MEMB     43       POPC     H3R      HAL2     0.900000E-01   1.00800           0
      5709 MEMB     43       POPC     H3S      HAL2     0.900000E-01   1.00800           0
      5710 MEMB     43       POPC     C24      CTL2    -0.180000       12.0110           0
      5711 MEMB     43       POPC     H4R      HAL2     0.900000E-01   1.00800           0
      5712 MEMB     43       POPC     H4S      HAL2     0.900000E-01   1.00800           0
      5713 MEMB     43       POPC     C25      CTL2    -0.180000       12.0110           0
      5714 MEMB     43       POPC     H5R      HAL2     0.900000E-01   1.00800           0
      5715 MEMB     43       POPC     H5S      HAL2     0.900000E-01   1.00800           0
      5716 MEMB     43       POPC     C26      CTL2    -0.180000       12.0110           0
      5717 MEMB     43       POPC     H6R      HAL2     0.900000E-01   1.00800           0
      5718 MEMB     43       POPC     H6S      HAL2     0.900000E-01   1.00800           0
      5719 MEMB     43       POPC     C27      CTL2    -0.180000       12.0110           0
      5720 MEMB     43       POPC     H7R      HAL2     0.900000E-01   1.00800           0
      5721 MEMB     43       POPC     H7S      HAL2     0.900000E-01   1.00800           0
      5722 MEMB     43       POPC     C28      CTL2    -0.180000       12.0110           0
      5723 MEMB     43       POPC     H8R      HAL2     0.900000E-01   1.00800           0
      5724 MEMB     43       POPC     H8S      HAL2     0.900000E-01   1.00800           0
      5725 MEMB     43       POPC     C29      CEL1    -0.150000       12.0110           0
      5726 MEMB     43       POPC     H91      HEL1     0.150000       1.00800           0
      5727 MEMB     43       POPC     C210     CEL1    -0.150000       12.0110           0
      5728 MEMB     43       POPC     H101     HEL1     0.150000       1.00800           0
      5729 MEMB     43       POPC     C211     CTL2    -0.180000       12.0110           0
      5730 MEMB     43       POPC     H11R     HAL2     0.900000E-01   1.00800           0
      5731 MEMB     43       POPC     H11S     HAL2     0.900000E-01   1.00800           0
      5732 MEMB     43       POPC     C212     CTL2    -0.180000       12.0110           0
      5733 MEMB     43       POPC     H12R     HAL2     0.900000E-01   1.00800           0
      5734 MEMB     43       POPC     H12S     HAL2     0.900000E-01   1.00800           0
      5735 MEMB     43       POPC     C213     CTL2    -0.180000       12.0110           0
      5736 MEMB     43       POPC     H13R     HAL2     0.900000E-01   1.00800           0
      5737 MEMB     43       POPC     H13S     HAL2     0.900000E-01   1.00800           0
      5738 MEMB     43       POPC     C214     CTL2    -0.180000       12.0110           0
      5739 MEMB     43       POPC     H14R     HAL2     0.900000E-01   1.00800           0
      5740 MEMB     43       POPC     H14S     HAL2     0.900000E-01   1.00800           0
      5741 MEMB     43       POPC     C215     CTL2    -0.180000       12.0110           0
      5742 MEMB     43       POPC     H15R     HAL2     0.900000E-01   1.00800           0
      5743 MEMB     43       POPC     H15S     HAL2     0.900000E-01   1.00800           0
      5744 MEMB     43       POPC     C216     CTL2    -0.180000       12.0110           0
      5745 MEMB     43       POPC     H16R     HAL2     0.900000E-01   1.00800           0
      5746 MEMB     43       POPC     H16S     HAL2     0.900000E-01   1.00800           0
      5747 MEMB     43       POPC     C217     CTL2    -0.180000       12.0110           0
      5748 MEMB     43       POPC     H17R     HAL2     0.900000E-01   1.00800           0
      5749 MEMB     43       POPC     H17S     HAL2     0.900000E-01   1.00800           0
      5750 MEMB     43       POPC     C218     CTL3    -0.270000       12.0110           0
      5751 MEMB     43       POPC     H18R     HAL3     0.900000E-01   1.00800           0
      5752 MEMB     43       POPC     H18S     HAL3     0.900000E-01   1.00800           0
      5753 MEMB     43       POPC     H18T     HAL3     0.900000E-01   1.00800           0
      5754 MEMB     43       POPC     C33      CTL2    -0.180000       12.0110           0
      5755 MEMB     43       POPC     H3X      HAL2     0.900000E-01   1.00800           0
      5756 MEMB     43       POPC     H3Y      HAL2     0.900000E-01   1.00800           0
      5757 MEMB     43       POPC     C34      CTL2    -0.180000       12.0110           0
      5758 MEMB     43       POPC     H4X      HAL2     0.900000E-01   1.00800           0
      5759 MEMB     43       POPC     H4Y      HAL2     0.900000E-01   1.00800           0
      5760 MEMB     43       POPC     C35      CTL2    -0.180000       12.0110           0
      5761 MEMB     43       POPC     H5X      HAL2     0.900000E-01   1.00800           0
      5762 MEMB     43       POPC     H5Y      HAL2     0.900000E-01   1.00800           0
      5763 MEMB     43       POPC     C36      CTL2    -0.180000       12.0110           0
      5764 MEMB     43       POPC     H6X      HAL2     0.900000E-01   1.00800           0
      5765 MEMB     43       POPC     H6Y      HAL2     0.900000E-01   1.00800           0
      5766 MEMB     43       POPC     C37      CTL2    -0.180000       12.0110           0
      5767 MEMB     43       POPC     H7X      HAL2     0.900000E-01   1.00800           0
      5768 MEMB     43       POPC     H7Y      HAL2     0.900000E-01   1.00800           0
      5769 MEMB     43       POPC     C38      CTL2    -0.180000       12.0110           0
      5770 MEMB     43       POPC     H8X      HAL2     0.900000E-01   1.00800           0
      5771 MEMB     43       POPC     H8Y      HAL2     0.900000E-01   1.00800           0
      5772 MEMB     43       POPC     C39      CTL2    -0.180000       12.0110           0
      5773 MEMB     43       POPC     H9X      HAL2     0.900000E-01   1.00800           0
      5774 MEMB     43       POPC     H9Y      HAL2     0.900000E-01   1.00800           0
      5775 MEMB     43       POPC     C310     CTL2    -0.180000       12.0110           0
      5776 MEMB     43       POPC     H10X     HAL2     0.900000E-01   1.00800           0
      5777 MEMB     43       POPC     H10Y     HAL2     0.900000E-01   1.00800           0
      5778 MEMB     43       POPC     C311     CTL2    -0.180000       12.0110           0
      5779 MEMB     43       POPC     H11X     HAL2     0.900000E-01   1.00800           0
      5780 MEMB     43       POPC     H11Y     HAL2     0.900000E-01   1.00800           0
      5781 MEMB     43       POPC     C312     CTL2    -0.180000       12.0110           0
      5782 MEMB     43       POPC     H12X     HAL2     0.900000E-01   1.00800           0
      5783 MEMB     43       POPC     H12Y     HAL2     0.900000E-01   1.00800           0
      5784 MEMB     43       POPC     C313     CTL2    -0.180000       12.0110           0
      5785 MEMB     43       POPC     H13X     HAL2     0.900000E-01   1.00800           0
      5786 MEMB     43       POPC     H13Y     HAL2     0.900000E-01   1.00800           0
      5787 MEMB     43       POPC     C314     CTL2    -0.180000       12.0110           0
      5788 MEMB     43       POPC     H14X     HAL2     0.900000E-01   1.00800           0
      5789 MEMB     43       POPC     H14Y     HAL2     0.900000E-01   1.00800           0
      5790 MEMB     43       POPC     C315     CTL2    -0.180000       12.0110           0
      5791 MEMB     43       POPC     H15X     HAL2     0.900000E-01   1.00800           0
      5792 MEMB     43       POPC     H15Y     HAL2     0.900000E-01   1.00800           0
      5793 MEMB     43       POPC     C316     CTL3    -0.270000       12.0110           0
      5794 MEMB     43       POPC     H16X     HAL3     0.900000E-01   1.00800           0
      5795 MEMB     43       POPC     H16Y     HAL3     0.900000E-01   1.00800           0
      5796 MEMB     43       POPC     H16Z     HAL3     0.900000E-01   1.00800           0
      5797 MEMB     44       POPC     N        NTL     -0.600000       14.0070           0
      5798 MEMB     44       POPC     C12      CTL2    -0.100000       12.0110           0
      5799 MEMB     44       POPC     H12A     HL       0.250000       1.00800           0
      5800 MEMB     44       POPC     H12B     HL       0.250000       1.00800           0
      5801 MEMB     44       POPC     C13      CTL5    -0.350000       12.0110           0
      5802 MEMB     44       POPC     H13A     HL       0.250000       1.00800           0
      5803 MEMB     44       POPC     H13B     HL       0.250000       1.00800           0
      5804 MEMB     44       POPC     H13C     HL       0.250000       1.00800           0
      5805 MEMB     44       POPC     C14      CTL5    -0.350000       12.0110           0
      5806 MEMB     44       POPC     H14A     HL       0.250000       1.00800           0
      5807 MEMB     44       POPC     H14B     HL       0.250000       1.00800           0
      5808 MEMB     44       POPC     H14C     HL       0.250000       1.00800           0
      5809 MEMB     44       POPC     C15      CTL5    -0.350000       12.0110           0
      5810 MEMB     44       POPC     H15A     HL       0.250000       1.00800           0
      5811 MEMB     44       POPC     H15B     HL       0.250000       1.00800           0
      5812 MEMB     44       POPC     H15C     HL       0.250000       1.00800           0
      5813 MEMB     44       POPC     C11      CTL2    -0.800000E-01   12.0110           0
      5814 MEMB     44       POPC     H11A     HAL2     0.900000E-01   1.00800           0
      5815 MEMB     44       POPC     H11B     HAL2     0.900000E-01   1.00800           0
      5816 MEMB     44       POPC     P        PL        1.50000       30.9740           0
      5817 MEMB     44       POPC     O13      O2L     -0.780000       15.9994           0
      5818 MEMB     44       POPC     O14      O2L     -0.780000       15.9994           0
      5819 MEMB     44       POPC     O12      OSLP    -0.570000       15.9994           0
      5820 MEMB     44       POPC     O11      OSLP    -0.570000       15.9994           0
      5821 MEMB     44       POPC     C1       CTL2    -0.800000E-01   12.0110           0
      5822 MEMB     44       POPC     HA       HAL2     0.900000E-01   1.00800           0
      5823 MEMB     44       POPC     HB       HAL2     0.900000E-01   1.00800           0
      5824 MEMB     44       POPC     C2       CTL1     0.170000       12.0110           0
      5825 MEMB     44       POPC     HS       HAL1     0.900000E-01   1.00800           0
      5826 MEMB     44       POPC     O21      OSL     -0.490000       15.9994           0
      5827 MEMB     44       POPC     C21      CL       0.900000       12.0110           0
      5828 MEMB     44       POPC     O22      OBL     -0.630000       15.9994           0
      5829 MEMB     44       POPC     C22      CTL2    -0.220000       12.0110           0
      5830 MEMB     44       POPC     H2R      HAL2     0.900000E-01   1.00800           0
      5831 MEMB     44       POPC     H2S      HAL2     0.900000E-01   1.00800           0
      5832 MEMB     44       POPC     C3       CTL2     0.800000E-01   12.0110           0
      5833 MEMB     44       POPC     HX       HAL2     0.900000E-01   1.00800           0
      5834 MEMB     44       POPC     HY       HAL2     0.900000E-01   1.00800           0
      5835 MEMB     44       POPC     O31      OSL     -0.490000       15.9994           0
      5836 MEMB     44       POPC     C31      CL       0.900000       12.0110           0
      5837 MEMB     44       POPC     O32      OBL     -0.630000       15.9994           0
      5838 MEMB     44       POPC     C32      CTL2    -0.220000       12.0110           0
      5839 MEMB     44       POPC     H2X      HAL2     0.900000E-01   1.00800           0
      5840 MEMB     44       POPC     H2Y      HAL2     0.900000E-01   1.00800           0
      5841 MEMB     44       POPC     C23      CTL2    -0.180000       12.0110           0
      5842 MEMB     44       POPC     H3R      HAL2     0.900000E-01   1.00800           0
      5843 MEMB     44       POPC     H3S      HAL2     0.900000E-01   1.00800           0
      5844 MEMB     44       POPC     C24      CTL2    -0.180000       12.0110           0
      5845 MEMB     44       POPC     H4R      HAL2     0.900000E-01   1.00800           0
      5846 MEMB     44       POPC     H4S      HAL2     0.900000E-01   1.00800           0
      5847 MEMB     44       POPC     C25      CTL2    -0.180000       12.0110           0
      5848 MEMB     44       POPC     H5R      HAL2     0.900000E-01   1.00800           0
      5849 MEMB     44       POPC     H5S      HAL2     0.900000E-01   1.00800           0
      5850 MEMB     44       POPC     C26      CTL2    -0.180000       12.0110           0
      5851 MEMB     44       POPC     H6R      HAL2     0.900000E-01   1.00800           0
      5852 MEMB     44       POPC     H6S      HAL2     0.900000E-01   1.00800           0
      5853 MEMB     44       POPC     C27      CTL2    -0.180000       12.0110           0
      5854 MEMB     44       POPC     H7R      HAL2     0.900000E-01   1.00800           0
      5855 MEMB     44       POPC     H7S      HAL2     0.900000E-01   1.00800           0
      5856 MEMB     44       POPC     C28      CTL2    -0.180000       12.0110           0
      5857 MEMB     44       POPC     H8R      HAL2     0.900000E-01   1.00800           0
      5858 MEMB     44       POPC     H8S      HAL2     0.900000E-01   1.00800           0
      5859 MEMB     44       POPC     C29      CEL1    -0.150000       12.0110           0
      5860 MEMB     44       POPC     H91      HEL1     0.150000       1.00800           0
      5861 MEMB     44       POPC     C210     CEL1    -0.150000       12.0110           0
      5862 MEMB     44       POPC     H101     HEL1     0.150000       1.00800           0
      5863 MEMB     44       POPC     C211     CTL2    -0.180000       12.0110           0
      5864 MEMB     44       POPC     H11R     HAL2     0.900000E-01   1.00800           0
      5865 MEMB     44       POPC     H11S     HAL2     0.900000E-01   1.00800           0
      5866 MEMB     44       POPC     C212     CTL2    -0.180000       12.0110           0
      5867 MEMB     44       POPC     H12R     HAL2     0.900000E-01   1.00800           0
      5868 MEMB     44       POPC     H12S     HAL2     0.900000E-01   1.00800           0
      5869 MEMB     44       POPC     C213     CTL2    -0.180000       12.0110           0
      5870 MEMB     44       POPC     H13R     HAL2     0.900000E-01   1.00800           0
      5871 MEMB     44       POPC     H13S     HAL2     0.900000E-01   1.00800           0
      5872 MEMB     44       POPC     C214     CTL2    -0.180000       12.0110           0
      5873 MEMB     44       POPC     H14R     HAL2     0.900000E-01   1.00800           0
      5874 MEMB     44       POPC     H14S     HAL2     0.900000E-01   1.00800           0
      5875 MEMB     44       POPC     C215     CTL2    -0.180000       12.0110           0
      5876 MEMB     44       POPC     H15R     HAL2     0.900000E-01   1.00800           0
      5877 MEMB     44       POPC     H15S     HAL2     0.900000E-01   1.00800           0
      5878 MEMB     44       POPC     C216     CTL2    -0.180000       12.0110           0
      5879 MEMB     44       POPC     H16R     HAL2     0.900000E-01   1.00800           0
      5880 MEMB     44       POPC     H16S     HAL2     0.900000E-01   1.00800           0
      5881 MEMB     44       POPC     C217     CTL2    -0.180000       12.0110           0
      5882 MEMB     44       POPC     H17R     HAL2     0.900000E-01   1.00800           0
      5883 MEMB     44       POPC     H17S     HAL2     0.900000E-01   1.00800           0
      5884 MEMB     44       POPC     C218     CTL3    -0.270000       12.0110           0
      5885 MEMB     44       POPC     H18R     HAL3     0.900000E-01   1.00800           0
      5886 MEMB     44       POPC     H18S     HAL3     0.900000E-01   1.00800           0
      5887 MEMB     44       POPC     H18T     HAL3     0.900000E-01   1.00800           0
      5888 MEMB     44       POPC     C33      CTL2    -0.180000       12.0110           0
      5889 MEMB     44       POPC     H3X      HAL2     0.900000E-01   1.00800           0
      5890 MEMB     44       POPC     H3Y      HAL2     0.900000E-01   1.00800           0
      5891 MEMB     44       POPC     C34      CTL2    -0.180000       12.0110           0
      5892 MEMB     44       POPC     H4X      HAL2     0.900000E-01   1.00800           0
      5893 MEMB     44       POPC     H4Y      HAL2     0.900000E-01   1.00800           0
      5894 MEMB     44       POPC     C35      CTL2    -0.180000       12.0110           0
      5895 MEMB     44       POPC     H5X      HAL2     0.900000E-01   1.00800           0
      5896 MEMB     44       POPC     H5Y      HAL2     0.900000E-01   1.00800           0
      5897 MEMB     44       POPC     C36      CTL2    -0.180000       12.0110           0
      5898 MEMB     44       POPC     H6X      HAL2     0.900000E-01   1.00800           0
      5899 MEMB     44       POPC     H6Y      HAL2     0.900000E-01   1.00800           0
      5900 MEMB     44       POPC     C37      CTL2    -0.180000       12.0110           0
      5901 MEMB     44       POPC     H7X      HAL2     0.900000E-01   1.00800           0
      5902 MEMB     44       POPC     H7Y      HAL2     0.900000E-01   1.00800           0
      5903 MEMB     44       POPC     C38      CTL2    -0.180000       12.0110           0
      5904 MEMB     44       POPC     H8X      HAL2     0.900000E-01   1.00800           0
      5905 MEMB     44       POPC     H8Y      HAL2     0.900000E-01   1.00800           0
      5906 MEMB     44       POPC     C39      CTL2    -0.180000       12.0110           0
      5907 MEMB     44       POPC     H9X      HAL2     0.900000E-01   1.00800           0
      5908 MEMB     44       POPC     H9Y      HAL2     0.900000E-01   1.00800           0
      5909 MEMB     44       POPC     C310     CTL2    -0.180000       12.0110           0
      5910 MEMB     44       POPC     H10X     HAL2     0.900000E-01   1.00800           0
      5911 MEMB     44       POPC     H10Y     HAL2     0.900000E-01   1.00800           0
      5912 MEMB     44       POPC     C311     CTL2    -0.180000       12.0110           0
      5913 MEMB     44       POPC     H11X     HAL2     0.900000E-01   1.00800           0
      5914 MEMB     44       POPC     H11Y     HAL2     0.900000E-01   1.00800           0
      5915 MEMB     44       POPC     C312     CTL2    -0.180000       12.0110           0
      5916 MEMB     44       POPC     H12X     HAL2     0.900000E-01   1.00800           0
      5917 MEMB     44       POPC     H12Y     HAL2     0.900000E-01   1.00800           0
      5918 MEMB     44       POPC     C313     CTL2    -0.180000       12.0110           0
      5919 MEMB     44       POPC     H13X     HAL2     0.900000E-01   1.00800           0
      5920 MEMB     44       POPC     H13Y     HAL2     0.900000E-01   1.00800           0
      5921 MEMB     44       POPC     C314     CTL2    -0.180000       12.0110           0
      5922 MEMB     44       POPC     H14X     HAL2     0.900000E-01   1.00800           0
      5923 MEMB     44       POPC     H14Y     HAL2     0.900000E-01   1.00800           0
      5924 MEMB     44       POPC     C315     CTL2    -0.180000       12.0110           0
      5925 MEMB     44       POPC     H15X     HAL2     0.900000E-01   1.00800           0
      5926 MEMB     44       POPC     H15Y     HAL2     0.900000E-01   1.00800           0
      5927 MEMB     44       POPC     C316     CTL3    -0.270000       12.0110           0
      5928 MEMB     44       POPC     H16X     HAL3     0.900000E-01   1.00800           0
      5929 MEMB     44       POPC     H16Y     HAL3     0.900000E-01   1.00800           0
      5930 MEMB     44       POPC     H16Z     HAL3     0.900000E-01   1.00800           0
      5931 MEMB     45       POPC     N        NTL     -0.600000       14.0070           0
      5932 MEMB     45       POPC     C12      CTL2    -0.100000       12.0110           0
      5933 MEMB     45       POPC     H12A     HL       0.250000       1.00800           0
      5934 MEMB     45       POPC     H12B     HL       0.250000       1.00800           0
      5935 MEMB     45       POPC     C13      CTL5    -0.350000       12.0110           0
      5936 MEMB     45       POPC     H13A     HL       0.250000       1.00800           0
      5937 MEMB     45       POPC     H13B     HL       0.250000       1.00800           0
      5938 MEMB     45       POPC     H13C     HL       0.250000       1.00800           0
      5939 MEMB     45       POPC     C14      CTL5    -0.350000       12.0110           0
      5940 MEMB     45       POPC     H14A     HL       0.250000       1.00800           0
      5941 MEMB     45       POPC     H14B     HL       0.250000       1.00800           0
      5942 MEMB     45       POPC     H14C     HL       0.250000       1.00800           0
      5943 MEMB     45       POPC     C15      CTL5    -0.350000       12.0110           0
      5944 MEMB     45       POPC     H15A     HL       0.250000       1.00800           0
      5945 MEMB     45       POPC     H15B     HL       0.250000       1.00800           0
      5946 MEMB     45       POPC     H15C     HL       0.250000       1.00800           0
      5947 MEMB     45       POPC     C11      CTL2    -0.800000E-01   12.0110           0
      5948 MEMB     45       POPC     H11A     HAL2     0.900000E-01   1.00800           0
      5949 MEMB     45       POPC     H11B     HAL2     0.900000E-01   1.00800           0
      5950 MEMB     45       POPC     P        PL        1.50000       30.9740           0
      5951 MEMB     45       POPC     O13      O2L     -0.780000       15.9994           0
      5952 MEMB     45       POPC     O14      O2L     -0.780000       15.9994           0
      5953 MEMB     45       POPC     O12      OSLP    -0.570000       15.9994           0
      5954 MEMB     45       POPC     O11      OSLP    -0.570000       15.9994           0
      5955 MEMB     45       POPC     C1       CTL2    -0.800000E-01   12.0110           0
      5956 MEMB     45       POPC     HA       HAL2     0.900000E-01   1.00800           0
      5957 MEMB     45       POPC     HB       HAL2     0.900000E-01   1.00800           0
      5958 MEMB     45       POPC     C2       CTL1     0.170000       12.0110           0
      5959 MEMB     45       POPC     HS       HAL1     0.900000E-01   1.00800           0
      5960 MEMB     45       POPC     O21      OSL     -0.490000       15.9994           0
      5961 MEMB     45       POPC     C21      CL       0.900000       12.0110           0
      5962 MEMB     45       POPC     O22      OBL     -0.630000       15.9994           0
      5963 MEMB     45       POPC     C22      CTL2    -0.220000       12.0110           0
      5964 MEMB     45       POPC     H2R      HAL2     0.900000E-01   1.00800           0
      5965 MEMB     45       POPC     H2S      HAL2     0.900000E-01   1.00800           0
      5966 MEMB     45       POPC     C3       CTL2     0.800000E-01   12.0110           0
      5967 MEMB     45       POPC     HX       HAL2     0.900000E-01   1.00800           0
      5968 MEMB     45       POPC     HY       HAL2     0.900000E-01   1.00800           0
      5969 MEMB     45       POPC     O31      OSL     -0.490000       15.9994           0
      5970 MEMB     45       POPC     C31      CL       0.900000       12.0110           0
      5971 MEMB     45       POPC     O32      OBL     -0.630000       15.9994           0
      5972 MEMB     45       POPC     C32      CTL2    -0.220000       12.0110           0
      5973 MEMB     45       POPC     H2X      HAL2     0.900000E-01   1.00800           0
      5974 MEMB     45       POPC     H2Y      HAL2     0.900000E-01   1.00800           0
      5975 MEMB     45       POPC     C23      CTL2    -0.180000       12.0110           0
      5976 MEMB     45       POPC     H3R      HAL2     0.900000E-01   1.00800           0
      5977 MEMB     45       POPC     H3S      HAL2     0.900000E-01   1.00800           0
      5978 MEMB     45       POPC     C24      CTL2    -0.180000       12.0110           0
      5979 MEMB     45       POPC     H4R      HAL2     0.900000E-01   1.00800           0
      5980 MEMB     45       POPC     H4S      HAL2     0.900000E-01   1.00800           0
      5981 MEMB     45       POPC     C25      CTL2    -0.180000       12.0110           0
      5982 MEMB     45       POPC     H5R      HAL2     0.900000E-01   1.00800           0
      5983 MEMB     45       POPC     H5S      HAL2     0.900000E-01   1.00800           0
      5984 MEMB     45       POPC     C26      CTL2    -0.180000       12.0110           0
      5985 MEMB     45       POPC     H6R      HAL2     0.900000E-01   1.00800           0
      5986 MEMB     45       POPC     H6S      HAL2     0.900000E-01   1.00800           0
      5987 MEMB     45       POPC     C27      CTL2    -0.180000       12.0110           0
      5988 MEMB     45       POPC     H7R      HAL2     0.900000E-01   1.00800           0
      5989 MEMB     45       POPC     H7S      HAL2     0.900000E-01   1.00800           0
      5990 MEMB     45       POPC     C28      CTL2    -0.180000       12.0110           0
      5991 MEMB     45       POPC     H8R      HAL2     0.900000E-01   1.00800           0
      5992 MEMB     45       POPC     H8S      HAL2     0.900000E-01   1.00800           0
      5993 MEMB     45       POPC     C29      CEL1    -0.150000       12.0110           0
      5994 MEMB     45       POPC     H91      HEL1     0.150000       1.00800           0
      5995 MEMB     45       POPC     C210     CEL1    -0.150000       12.0110           0
      5996 MEMB     45       POPC     H101     HEL1     0.150000       1.00800           0
      5997 MEMB     45       POPC     C211     CTL2    -0.180000       12.0110           0
      5998 MEMB     45       POPC     H11R     HAL2     0.900000E-01   1.00800           0
      5999 MEMB     45       POPC     H11S     HAL2     0.900000E-01   1.00800           0
      6000 MEMB     45       POPC     C212     CTL2    -0.180000       12.0110           0
      6001 MEMB     45       POPC     H12R     HAL2     0.900000E-01   1.00800           0
      6002 MEMB     45       POPC     H12S     HAL2     0.900000E-01   1.00800           0
      6003 MEMB     45       POPC     C213     CTL2    -0.180000       12.0110           0
      6004 MEMB     45       POPC     H13R     HAL2     0.900000E-01   1.00800           0
      6005 MEMB     45       POPC     H13S     HAL2     0.900000E-01   1.00800           0
      6006 MEMB     45       POPC     C214     CTL2    -0.180000       12.0110           0
      6007 MEMB     45       POPC     H14R     HAL2     0.900000E-01   1.00800           0
      6008 MEMB     45       POPC     H14S     HAL2     0.900000E-01   1.00800           0
      6009 MEMB     45       POPC     C215     CTL2    -0.180000       12.0110           0
      6010 MEMB     45       POPC     H15R     HAL2     0.900000E-01   1.00800           0
      6011 MEMB     45       POPC     H15S     HAL2     0.900000E-01   1.00800           0
      6012 MEMB     45       POPC     C216     CTL2    -0.180000       12.0110           0
      6013 MEMB     45       POPC     H16R     HAL2     0.900000E-01   1.00800           0
      6014 MEMB     45       POPC     H16S     HAL2     0.900000E-01   1.00800           0
      6015 MEMB     45       POPC     C217     CTL2    -0.180000       12.0110           0
      6016 MEMB     45       POPC     H17R     HAL2     0.900000E-01   1.00800           0
      6017 MEMB     45       POPC     H17S     HAL2     0.900000E-01   1.00800           0
      6018 MEMB     45       POPC     C218     CTL3    -0.270000       12.0110           0
      6019 MEMB     45       POPC     H18R     HAL3     0.900000E-01   1.00800           0
      6020 MEMB     45       POPC     H18S     HAL3     0.900000E-01   1.00800           0
      6021 MEMB     45       POPC     H18T     HAL3     0.900000E-01   1.00800           0
      6022 MEMB     45       POPC     C33      CTL2    -0.180000       12.0110           0
      6023 MEMB     45       POPC     H3X      HAL2     0.900000E-01   1.00800           0
      6024 MEMB     45       POPC     H3Y      HAL2     0.900000E-01   1.00800           0
      6025 MEMB     45       POPC     C34      CTL2    -0.180000       12.0110           0
      6026 MEMB     45       POPC     H4X      HAL2     0.900000E-01   1.00800           0
      6027 MEMB     45       POPC     H4Y      HAL2     0.900000E-01   1.00800           0
      6028 MEMB     45       POPC     C35      CTL2    -0.180000       12.0110           0
      6029 MEMB     45       POPC     H5X      HAL2     0.900000E-01   1.00800           0
      6030 MEMB     45       POPC     H5Y      HAL2     0.900000E-01   1.00800           0
      6031 MEMB     45       POPC     C36      CTL2    -0.180000       12.0110           0
      6032 MEMB     45       POPC     H6X      HAL2     0.900000E-01   1.00800           0
      6033 MEMB     45       POPC     H6Y      HAL2     0.900000E-01   1.00800           0
      6034 MEMB     45       POPC     C37      CTL2    -0.180000       12.0110           0
      6035 MEMB     45       POPC     H7X      HAL2     0.900000E-01   1.00800           0
      6036 MEMB     45       POPC     H7Y      HAL2     0.900000E-01   1.00800           0
      6037 MEMB     45       POPC     C38      CTL2    -0.180000       12.0110           0
      6038 MEMB     45       POPC     H8X      HAL2     0.900000E-01   1.00800           0
      6039 MEMB     45       POPC     H8Y      HAL2     0.900000E-01   1.00800           0
      6040 MEMB     45       POPC     C39      CTL2    -0.180000       12.0110           0
      6041 MEMB     45       POPC     H9X      HAL2     0.900000E-01   1.00800           0
      6042 MEMB     45       POPC     H9Y      HAL2     0.900000E-01   1.00800           0
      6043 MEMB     45       POPC     C310     CTL2    -0.180000       12.0110           0
      6044 MEMB     45       POPC     H10X     HAL2     0.900000E-01   1.00800           0
      6045 MEMB     45       POPC     H10Y     HAL2     0.900000E-01   1.00800           0
      6046 MEMB     45       POPC     C311     CTL2    -0.180000       12.0110           0
      6047 MEMB     45       POPC     H11X     HAL2     0.900000E-01   1.00800           0
      6048 MEMB     45       POPC     H11Y     HAL2     0.900000E-01   1.00800           0
      6049 MEMB     45       POPC     C312     CTL2    -0.180000       12.0110           0
      6050 MEMB     45       POPC     H12X     HAL2     0.900000E-01   1.00800           0
      6051 MEMB     45       POPC     H12Y     HAL2     0.900000E-01   1.00800           0
      6052 MEMB     45       POPC     C313     CTL2    -0.180000       12.0110           0
      6053 MEMB     45       POPC     H13X     HAL2     0.900000E-01   1.00800           0
      6054 MEMB     45       POPC     H13Y     HAL2     0.900000E-01   1.00800           0
      6055 MEMB     45       POPC     C314     CTL2    -0.180000       12.0110           0
      6056 MEMB     45       POPC     H14X     HAL2     0.900000E-01   1.00800           0
      6057 MEMB     45       POPC     H14Y     HAL2     0.900000E-01   1.00800           0
      6058 MEMB     45       POPC     C315     CTL2    -0.180000       12.0110           0
      6059 MEMB     45       POPC     H15X     HAL2     0.900000E-01   1.00800           0
      6060 MEMB     45       POPC     H15Y     HAL2     0.900000E-01   1.00800           0
      6061 MEMB     45       POPC     C316     CTL3    -0.270000       12.0110           0
      6062 MEMB     45       POPC     H16X     HAL3     0.900000E-01   1.00800           0
      6063 MEMB     45       POPC     H16Y     HAL3     0.900000E-01   1.00800           0
      6064 MEMB     45       POPC     H16Z     HAL3     0.900000E-01   1.00800           0
      6065 MEMB     46       POPC     N        NTL     -0.600000       14.0070           0
      6066 MEMB     46       POPC     C12      CTL2    -0.100000       12.0110           0
      6067 MEMB     46       POPC     H12A     HL       0.250000       1.00800           0
      6068 MEMB     46       POPC     H12B     HL       0.250000       1.00800           0
      6069 MEMB     46       POPC     C13      CTL5    -0.350000       12.0110           0
      6070 MEMB     46       POPC     H13A     HL       0.250000       1.00800           0
      6071 MEMB     46       POPC     H13B     HL       0.250000       1.00800           0
      6072 MEMB     46       POPC     H13C     HL       0.250000       1.00800           0
      6073 MEMB     46       POPC     C14      CTL5    -0.350000       12.0110           0
      6074 MEMB     46       POPC     H14A     HL       0.250000       1.00800           0
      6075 MEMB     46       POPC     H14B     HL       0.250000       1.00800           0
      6076 MEMB     46       POPC     H14C     HL       0.250000       1.00800           0
      6077 MEMB     46       POPC     C15      CTL5    -0.350000       12.0110           0
      6078 MEMB     46       POPC     H15A     HL       0.250000       1.00800           0
      6079 MEMB     46       POPC     H15B     HL       0.250000       1.00800           0
      6080 MEMB     46       POPC     H15C     HL       0.250000       1.00800           0
      6081 MEMB     46       POPC     C11      CTL2    -0.800000E-01   12.0110           0
      6082 MEMB     46       POPC     H11A     HAL2     0.900000E-01   1.00800           0
      6083 MEMB     46       POPC     H11B     HAL2     0.900000E-01   1.00800           0
      6084 MEMB     46       POPC     P        PL        1.50000       30.9740           0
      6085 MEMB     46       POPC     O13      O2L     -0.780000       15.9994           0
      6086 MEMB     46       POPC     O14      O2L     -0.780000       15.9994           0
      6087 MEMB     46       POPC     O12      OSLP    -0.570000       15.9994           0
      6088 MEMB     46       POPC     O11      OSLP    -0.570000       15.9994           0
      6089 MEMB     46       POPC     C1       CTL2    -0.800000E-01   12.0110           0
      6090 MEMB     46       POPC     HA       HAL2     0.900000E-01   1.00800           0
      6091 MEMB     46       POPC     HB       HAL2     0.900000E-01   1.00800           0
      6092 MEMB     46       POPC     C2       CTL1     0.170000       12.0110           0
      6093 MEMB     46       POPC     HS       HAL1     0.900000E-01   1.00800           0
      6094 MEMB     46       POPC     O21      OSL     -0.490000       15.9994           0
      6095 MEMB     46       POPC     C21      CL       0.900000       12.0110           0
      6096 MEMB     46       POPC     O22      OBL     -0.630000       15.9994           0
      6097 MEMB     46       POPC     C22      CTL2    -0.220000       12.0110           0
      6098 MEMB     46       POPC     H2R      HAL2     0.900000E-01   1.00800           0
      6099 MEMB     46       POPC     H2S      HAL2     0.900000E-01   1.00800           0
      6100 MEMB     46       POPC     C3       CTL2     0.800000E-01   12.0110           0
      6101 MEMB     46       POPC     HX       HAL2     0.900000E-01   1.00800           0
      6102 MEMB     46       POPC     HY       HAL2     0.900000E-01   1.00800           0
      6103 MEMB     46       POPC     O31      OSL     -0.490000       15.9994           0
      6104 MEMB     46       POPC     C31      CL       0.900000       12.0110           0
      6105 MEMB     46       POPC     O32      OBL     -0.630000       15.9994           0
      6106 MEMB     46       POPC     C32      CTL2    -0.220000       12.0110           0
      6107 MEMB     46       POPC     H2X      HAL2     0.900000E-01   1.00800           0
      6108 MEMB     46       POPC     H2Y      HAL2     0.900000E-01   1.00800           0
      6109 MEMB     46       POPC     C23      CTL2    -0.180000       12.0110           0
      6110 MEMB     46       POPC     H3R      HAL2     0.900000E-01   1.00800           0
      6111 MEMB     46       POPC     H3S      HAL2     0.900000E-01   1.00800           0
      6112 MEMB     46       POPC     C24      CTL2    -0.180000       12.0110           0
      6113 MEMB     46       POPC     H4R      HAL2     0.900000E-01   1.00800           0
      6114 MEMB     46       POPC     H4S      HAL2     0.900000E-01   1.00800           0
      6115 MEMB     46       POPC     C25      CTL2    -0.180000       12.0110           0
      6116 MEMB     46       POPC     H5R      HAL2     0.900000E-01   1.00800           0
      6117 MEMB     46       POPC     H5S      HAL2     0.900000E-01   1.00800           0
      6118 MEMB     46       POPC     C26      CTL2    -0.180000       12.0110           0
      6119 MEMB     46       POPC     H6R      HAL2     0.900000E-01   1.00800           0
      6120 MEMB     46       POPC     H6S      HAL2     0.900000E-01   1.00800           0
      6121 MEMB     46       POPC     C27      CTL2    -0.180000       12.0110           0
      6122 MEMB     46       POPC     H7R      HAL2     0.900000E-01   1.00800           0
      6123 MEMB     46       POPC     H7S      HAL2     0.900000E-01   1.00800           0
      6124 MEMB     46       POPC     C28      CTL2    -0.180000       12.0110           0
      6125 MEMB     46       POPC     H8R      HAL2     0.900000E-01   1.00800           0
      6126 MEMB     46       POPC     H8S      HAL2     0.900000E-01   1.00800           0
      6127 MEMB     46       POPC     C29      CEL1    -0.150000       12.0110           0
      6128 MEMB     46       POPC     H91      HEL1     0.150000       1.00800           0
      6129 MEMB     46       POPC     C210     CEL1    -0.150000       12.0110           0
      6130 MEMB     46       POPC     H101     HEL1     0.150000       1.00800           0
      6131 MEMB     46       POPC     C211     CTL2    -0.180000       12.0110           0
      6132 MEMB     46       POPC     H11R     HAL2     0.900000E-01   1.00800           0
      6133 MEMB     46       POPC     H11S     HAL2     0.900000E-01   1.00800           0
      6134 MEMB     46       POPC     C212     CTL2    -0.180000       12.0110           0
      6135 MEMB     46       POPC     H12R     HAL2     0.900000E-01   1.00800           0
      6136 MEMB     46       POPC     H12S     HAL2     0.900000E-01   1.00800           0
      6137 MEMB     46       POPC     C213     CTL2    -0.180000       12.0110           0
      6138 MEMB     46       POPC     H13R     HAL2     0.900000E-01   1.00800           0
      6139 MEMB     46       POPC     H13S     HAL2     0.900000E-01   1.00800           0
      6140 MEMB     46       POPC     C214     CTL2    -0.180000       12.0110           0
      6141 MEMB     46       POPC     H14R     HAL2     0.900000E-01   1.00800           0
      6142 MEMB     46       POPC     H14S     HAL2     0.900000E-01   1.00800           0
      6143 MEMB     46       POPC     C215     CTL2    -0.180000       12.0110           0
      6144 MEMB     46       POPC     H15R     HAL2     0.900000E-01   1.00800           0
      6145 MEMB     46       POPC     H15S     HAL2     0.900000E-01   1.00800           0
      6146 MEMB     46       POPC     C216     CTL2    -0.180000       12.0110           0
      6147 MEMB     46       POPC     H16R     HAL2     0.900000E-01   1.00800           0
      6148 MEMB     46       POPC     H16S     HAL2     0.900000E-01   1.00800           0
      6149 MEMB     46       POPC     C217     CTL2    -0.180000       12.0110           0
      6150 MEMB     46       POPC     H17R     HAL2     0.900000E-01   1.00800           0
      6151 MEMB     46       POPC     H17S     HAL2     0.900000E-01   1.00800           0
      6152 MEMB     46       POPC     C218     CTL3    -0.270000       12.0110           0
      6153 MEMB     46       POPC     H18R     HAL3     0.900000E-01   1.00800           0
      6154 MEMB     46       POPC     H18S     HAL3     0.900000E-01   1.00800           0
      6155 MEMB     46       POPC     H18T     HAL3     0.900000E-01   1.00800           0
      6156 MEMB     46       POPC     C33      CTL2    -0.180000       12.0110           0
      6157 MEMB     46       POPC     H3X      HAL2     0.900000E-01   1.00800           0
      6158 MEMB     46       POPC     H3Y      HAL2     0.900000E-01   1.00800           0
      6159 MEMB     46       POPC     C34      CTL2    -0.180000       12.0110           0
      6160 MEMB     46       POPC     H4X      HAL2     0.900000E-01   1.00800           0
      6161 MEMB     46       POPC     H4Y      HAL2     0.900000E-01   1.00800           0
      6162 MEMB     46       POPC     C35      CTL2    -0.180000       12.0110           0
      6163 MEMB     46       POPC     H5X      HAL2     0.900000E-01   1.00800           0
      6164 MEMB     46       POPC     H5Y      HAL2     0.900000E-01   1.00800           0
      6165 MEMB     46       POPC     C36      CTL2    -0.180000       12.0110           0
      6166 MEMB     46       POPC     H6X      HAL2     0.900000E-01   1.00800           0
      6167 MEMB     46       POPC     H6Y      HAL2     0.900000E-01   1.00800           0
      6168 MEMB     46       POPC     C37      CTL2    -0.180000       12.0110           0
      6169 MEMB     46       POPC     H7X      HAL2     0.900000E-01   1.00800           0
      6170 MEMB     46       POPC     H7Y      HAL2     0.900000E-01   1.00800           0
      6171 MEMB     46       POPC     C38      CTL2    -0.180000       12.0110           0
      6172 MEMB     46       POPC     H8X      HAL2     0.900000E-01   1.00800           0
      6173 MEMB     46       POPC     H8Y      HAL2     0.900000E-01   1.00800           0
      6174 MEMB     46       POPC     C39      CTL2    -0.180000       12.0110           0
      6175 MEMB     46       POPC     H9X      HAL2     0.900000E-01   1.00800           0
      6176 MEMB     46       POPC     H9Y      HAL2     0.900000E-01   1.00800           0
      6177 MEMB     46       POPC     C310     CTL2    -0.180000       12.0110           0
      6178 MEMB     46       POPC     H10X     HAL2     0.900000E-01   1.00800           0
      6179 MEMB     46       POPC     H10Y     HAL2     0.900000E-01   1.00800           0
      6180 MEMB     46       POPC     C311     CTL2    -0.180000       12.0110           0
      6181 MEMB     46       POPC     H11X     HAL2     0.900000E-01   1.00800           0
      6182 MEMB     46       POPC     H11Y     HAL2     0.900000E-01   1.00800           0
      6183 MEMB     46       POPC     C312     CTL2    -0.180000       12.0110           0
      6184 MEMB     46       POPC     H12X     HAL2     0.900000E-01   1.00800           0
      6185 MEMB     46       POPC     H12Y     HAL2     0.900000E-01   1.00800           0
      6186 MEMB     46       POPC     C313     CTL2    -0.180000       12.0110           0
      6187 MEMB     46       POPC     H13X     HAL2     0.900000E-01   1.00800           0
      6188 MEMB     46       POPC     H13Y     HAL2     0.900000E-01   1.00800           0
      6189 MEMB     46       POPC     C314     CTL2    -0.180000       12.0110           0
      6190 MEMB     46       POPC     H14X     HAL2     0.900000E-01   1.00800           0
      6191 MEMB     46       POPC     H14Y     HAL2     0.900000E-01   1.00800           0
      6192 MEMB     46       POPC     C315     CTL2    -0.180000       12.0110           0
      6193 MEMB     46       POPC     H15X     HAL2     0.900000E-01   1.00800           0
      6194 MEMB     46       POPC     H15Y     HAL2     0.900000E-01   1.00800           0
      6195 MEMB     46       POPC     C316     CTL3    -0.270000       12.0110           0
      6196 MEMB     46       POPC     H16X     HAL3     0.900000E-01   1.00800           0
      6197 MEMB     46       POPC     H16Y     HAL3     0.900000E-01   1.00800           0
      6198 MEMB     46       POPC     H16Z     HAL3     0.900000E-01   1.00800           0
      6199 MEMB     47       POPC     N        NTL     -0.600000       14.0070           0
      6200 MEMB     47       POPC     C12      CTL2    -0.100000       12.0110           0
      6201 MEMB     47       POPC     H12A     HL       0.250000       1.00800           0
      6202 MEMB     47       POPC     H12B     HL       0.250000       1.00800           0
      6203 MEMB     47       POPC     C13      CTL5    -0.350000       12.0110           0
      6204 MEMB     47       POPC     H13A     HL       0.250000       1.00800           0
      6205 MEMB     47       POPC     H13B     HL       0.250000       1.00800           0
      6206 MEMB     47       POPC     H13C     HL       0.250000       1.00800           0
      6207 MEMB     47       POPC     C14      CTL5    -0.350000       12.0110           0
      6208 MEMB     47       POPC     H14A     HL       0.250000       1.00800           0
      6209 MEMB     47       POPC     H14B     HL       0.250000       1.00800           0
      6210 MEMB     47       POPC     H14C     HL       0.250000       1.00800           0
      6211 MEMB     47       POPC     C15      CTL5    -0.350000       12.0110           0
      6212 MEMB     47       POPC     H15A     HL       0.250000       1.00800           0
      6213 MEMB     47       POPC     H15B     HL       0.250000       1.00800           0
      6214 MEMB     47       POPC     H15C     HL       0.250000       1.00800           0
      6215 MEMB     47       POPC     C11      CTL2    -0.800000E-01   12.0110           0
      6216 MEMB     47       POPC     H11A     HAL2     0.900000E-01   1.00800           0
      6217 MEMB     47       POPC     H11B     HAL2     0.900000E-01   1.00800           0
      6218 MEMB     47       POPC     P        PL        1.50000       30.9740           0
      6219 MEMB     47       POPC     O13      O2L     -0.780000       15.9994           0
      6220 MEMB     47       POPC     O14      O2L     -0.780000       15.9994           0
      6221 MEMB     47       POPC     O12      OSLP    -0.570000       15.9994           0
      6222 MEMB     47       POPC     O11      OSLP    -0.570000       15.9994           0
      6223 MEMB     47       POPC     C1       CTL2    -0.800000E-01   12.0110           0
      6224 MEMB     47       POPC     HA       HAL2     0.900000E-01   1.00800           0
      6225 MEMB     47       POPC     HB       HAL2     0.900000E-01   1.00800           0
      6226 MEMB     47       POPC     C2       CTL1     0.170000       12.0110           0
      6227 MEMB     47       POPC     HS       HAL1     0.900000E-01   1.00800           0
      6228 MEMB     47       POPC     O21      OSL     -0.490000       15.9994           0
      6229 MEMB     47       POPC     C21      CL       0.900000       12.0110           0
      6230 MEMB     47       POPC     O22      OBL     -0.630000       15.9994           0
      6231 MEMB     47       POPC     C22      CTL2    -0.220000       12.0110           0
      6232 MEMB     47       POPC     H2R      HAL2     0.900000E-01   1.00800           0
      6233 MEMB     47       POPC     H2S      HAL2     0.900000E-01   1.00800           0
      6234 MEMB     47       POPC     C3       CTL2     0.800000E-01   12.0110           0
      6235 MEMB     47       POPC     HX       HAL2     0.900000E-01   1.00800           0
      6236 MEMB     47       POPC     HY       HAL2     0.900000E-01   1.00800           0
      6237 MEMB     47       POPC     O31      OSL     -0.490000       15.9994           0
      6238 MEMB     47       POPC     C31      CL       0.900000       12.0110           0
      6239 MEMB     47       POPC     O32      OBL     -0.630000       15.9994           0
      6240 MEMB     47       POPC     C32      CTL2    -0.220000       12.0110           0
      6241 MEMB     47       POPC     H2X      HAL2     0.900000E-01   1.00800           0
      6242 MEMB     47       POPC     H2Y      HAL2     0.900000E-01   1.00800           0
      6243 MEMB     47       POPC     C23      CTL2    -0.180000       12.0110           0
      6244 MEMB     47       POPC     H3R      HAL2     0.900000E-01   1.00800           0
      6245 MEMB     47       POPC     H3S      HAL2     0.900000E-01   1.00800           0
      6246 MEMB     47       POPC     C24      CTL2    -0.180000       12.0110           0
      6247 MEMB     47       POPC     H4R      HAL2     0.900000E-01   1.00800           0
      6248 MEMB     47       POPC     H4S      HAL2     0.900000E-01   1.00800           0
      6249 MEMB     47       POPC     C25      CTL2    -0.180000       12.0110           0
      6250 MEMB     47       POPC     H5R      HAL2     0.900000E-01   1.00800           0
      6251 MEMB     47       POPC     H5S      HAL2     0.900000E-01   1.00800           0
      6252 MEMB     47       POPC     C26      CTL2    -0.180000       12.0110           0
      6253 MEMB     47       POPC     H6R      HAL2     0.900000E-01   1.00800           0
      6254 MEMB     47       POPC     H6S      HAL2     0.900000E-01   1.00800           0
      6255 MEMB     47       POPC     C27      CTL2    -0.180000       12.0110           0
      6256 MEMB     47       POPC     H7R      HAL2     0.900000E-01   1.00800           0
      6257 MEMB     47       POPC     H7S      HAL2     0.900000E-01   1.00800           0
      6258 MEMB     47       POPC     C28      CTL2    -0.180000       12.0110           0
      6259 MEMB     47       POPC     H8R      HAL2     0.900000E-01   1.00800           0
      6260 MEMB     47       POPC     H8S      HAL2     0.900000E-01   1.00800           0
      6261 MEMB     47       POPC     C29      CEL1    -0.150000       12.0110           0
      6262 MEMB     47       POPC     H91      HEL1     0.150000       1.00800           0
      6263 MEMB     47       POPC     C210     CEL1    -0.150000       12.0110           0
      6264 MEMB     47       POPC     H101     HEL1     0.150000       1.00800           0
      6265 MEMB     47       POPC     C211     CTL2    -0.180000       12.0110           0
      6266 MEMB     47       POPC     H11R     HAL2     0.900000E-01   1.00800           0
      6267 MEMB     47       POPC     H11S     HAL2     0.900000E-01   1.00800           0
      6268 MEMB     47       POPC     C212     CTL2    -0.180000       12.0110           0
      6269 MEMB     47       POPC     H12R     HAL2     0.900000E-01   1.00800           0
      6270 MEMB     47       POPC     H12S     HAL2     0.900000E-01   1.00800           0
      6271 MEMB     47       POPC     C213     CTL2    -0.180000       12.0110           0
      6272 MEMB     47       POPC     H13R     HAL2     0.900000E-01   1.00800           0
      6273 MEMB     47       POPC     H13S     HAL2     0.900000E-01   1.00800           0
      6274 MEMB     47       POPC     C214     CTL2    -0.180000       12.0110           0
      6275 MEMB     47       POPC     H14R     HAL2     0.900000E-01   1.00800           0
      6276 MEMB     47       POPC     H14S     HAL2     0.900000E-01   1.00800           0
      6277 MEMB     47       POPC     C215     CTL2    -0.180000       12.0110           0
      6278 MEMB     47       POPC     H15R     HAL2     0.900000E-01   1.00800           0
      6279 MEMB     47       POPC     H15S     HAL2     0.900000E-01   1.00800           0
      6280 MEMB     47       POPC     C216     CTL2    -0.180000       12.0110           0
      6281 MEMB     47       POPC     H16R     HAL2     0.900000E-01   1.00800           0
      6282 MEMB     47       POPC     H16S     HAL2     0.900000E-01   1.00800           0
      6283 MEMB     47       POPC     C217     CTL2    -0.180000       12.0110           0
      6284 MEMB     47       POPC     H17R     HAL2     0.900000E-01   1.00800           0
      6285 MEMB     47       POPC     H17S     HAL2     0.900000E-01   1.00800           0
      6286 MEMB     47       POPC     C218     CTL3    -0.270000       12.0110           0
      6287 MEMB     47       POPC     H18R     HAL3     0.900000E-01   1.00800           0
      6288 MEMB     47       POPC     H18S     HAL3     0.900000E-01   1.00800           0
      6289 MEMB     47       POPC     H18T     HAL3     0.900000E-01   1.00800           0
      6290 MEMB     47       POPC     C33      CTL2    -0.180000       12.0110           0
      6291 MEMB     47       POPC     H3X      HAL2     0.900000E-01   1.00800           0
      6292 MEMB     47       POPC     H3Y      HAL2     0.900000E-01   1.00800           0
      6293 MEMB     47       POPC     C34      CTL2    -0.180000       12.0110           0
      6294 MEMB     47       POPC     H4X      HAL2     0.900000E-01   1.00800           0
      6295 MEMB     47       POPC     H4Y      HAL2     0.900000E-01   1.00800           0
      6296 MEMB     47       POPC     C35      CTL2    -0.180000       12.0110           0
      6297 MEMB     47       POPC     H5X      HAL2     0.900000E-01   1.00800           0
      6298 MEMB     47       POPC     H5Y      HAL2     0.900000E-01   1.00800           0
      6299 MEMB     47       POPC     C36      CTL2    -0.180000       12.0110           0
      6300 MEMB     47       POPC     H6X      HAL2     0.900000E-01   1.00800           0
      6301 MEMB     47       POPC     H6Y      HAL2     0.900000E-01   1.00800           0
      6302 MEMB     47       POPC     C37      CTL2    -0.180000       12.0110           0
      6303 MEMB     47       POPC     H7X      HAL2     0.900000E-01   1.00800           0
      6304 MEMB     47       POPC     H7Y      HAL2     0.900000E-01   1.00800           0
      6305 MEMB     47       POPC     C38      CTL2    -0.180000       12.0110           0
      6306 MEMB     47       POPC     H8X      HAL2     0.900000E-01   1.00800           0
      6307 MEMB     47       POPC     H8Y      HAL2     0.900000E-01   1.00800           0
      6308 MEMB     47       POPC     C39      CTL2    -0.180000       12.0110           0
      6309 MEMB     47       POPC     H9X      HAL2     0.900000E-01   1.00800           0
      6310 MEMB     47       POPC     H9Y      HAL2     0.900000E-01   1.00800           0
      6311 MEMB     47       POPC     C310     CTL2    -0.180000       12.0110           0
      6312 MEMB     47       POPC     H10X     HAL2     0.900000E-01   1.00800           0
      6313 MEMB     47       POPC     H10Y     HAL2     0.900000E-01   1.00800           0
      6314 MEMB     47       POPC     C311     CTL2    -0.180000       12.0110           0
      6315 MEMB     47       POPC     H11X     HAL2     0.900000E-01   1.00800           0
      6316 MEMB     47       POPC     H11Y     HAL2     0.900000E-01   1.00800           0
      6317 MEMB     47       POPC     C312     CTL2    -0.180000       12.0110           0
      6318 MEMB     47       POPC     H12X     HAL2     0.900000E-01   1.00800           0
      6319 MEMB     47       POPC     H12Y     HAL2     0.900000E-01   1.00800           0
      6320 MEMB     47       POPC     C313     CTL2    -0.180000       12.0110           0
      6321 MEMB     47       POPC     H13X     HAL2     0.900000E-01   1.00800           0
      6322 MEMB     47       POPC     H13Y     HAL2     0.900000E-01   1.00800           0
      6323 MEMB     47       POPC     C314     CTL2    -0.180000       12.0110           0
      6324 MEMB     47       POPC     H14X     HAL2     0.900000E-01   1.00800           0
      6325 MEMB     47       POPC     H14Y     HAL2     0.900000E-01   1.00800           0
      6326 MEMB     47       POPC     C315     CTL2    -0.180000       12.0110           0
      6327 MEMB     47       POPC     H15X     HAL2     0.900000E-01   1.00800           0
      6328 MEMB     47       POPC     H15Y     HAL2     0.900000E-01   1.00800           0
      6329 MEMB     47       POPC     C316     CTL3    -0.270000       12.0110           0
      6330 MEMB     47       POPC     H16X     HAL3     0.900000E-01   1.00800           0
      6331 MEMB     47       POPC     H16Y     HAL3     0.900000E-01   1.00800           0
      6332 MEMB     47       POPC     H16Z     HAL3     0.900000E-01   1.00800           0
      6333 MEMB     48       POPS     N        NH3L    -0.300000       14.0070           0
      6334 MEMB     48       POPS     HN1      HCL      0.330000       1.00800           0
      6335 MEMB     48       POPS     HN2      HCL      0.330000       1.00800           0
      6336 MEMB     48       POPS     HN3      HCL      0.330000       1.00800           0
      6337 MEMB     48       POPS     C12      CTL1     0.210000       12.0110           0
      6338 MEMB     48       POPS     H12A     HBL      0.100000       1.00800           0
      6339 MEMB     48       POPS     C13      CCL      0.340000       12.0110           0
      6340 MEMB     48       POPS     O13A     OCL     -0.670000       15.9994           0
      6341 MEMB     48       POPS     O13B     OCL     -0.670000       15.9994           0
      6342 MEMB     48       POPS     C11      CTL2    -0.800000E-01   12.0110           0
      6343 MEMB     48       POPS     H11A     HAL2     0.900000E-01   1.00800           0
      6344 MEMB     48       POPS     H11B     HAL2     0.900000E-01   1.00800           0
      6345 MEMB     48       POPS     P        PL        1.50000       30.9740           0
      6346 MEMB     48       POPS     O13      O2L     -0.780000       15.9994           0
      6347 MEMB     48       POPS     O14      O2L     -0.780000       15.9994           0
      6348 MEMB     48       POPS     O12      OSLP    -0.570000       15.9994           0
      6349 MEMB     48       POPS     O11      OSLP    -0.570000       15.9994           0
      6350 MEMB     48       POPS     C1       CTL2    -0.800000E-01   12.0110           0
      6351 MEMB     48       POPS     HA       HAL2     0.900000E-01   1.00800           0
      6352 MEMB     48       POPS     HB       HAL2     0.900000E-01   1.00800           0
      6353 MEMB     48       POPS     C2       CTL1     0.170000       12.0110           0
      6354 MEMB     48       POPS     HS       HAL1     0.900000E-01   1.00800           0
      6355 MEMB     48       POPS     O21      OSL     -0.490000       15.9994           0
      6356 MEMB     48       POPS     C21      CL       0.900000       12.0110           0
      6357 MEMB     48       POPS     O22      OBL     -0.630000       15.9994           0
      6358 MEMB     48       POPS     C22      CTL2    -0.220000       12.0110           0
      6359 MEMB     48       POPS     H2R      HAL2     0.900000E-01   1.00800           0
      6360 MEMB     48       POPS     H2S      HAL2     0.900000E-01   1.00800           0
      6361 MEMB     48       POPS     C3       CTL2     0.800000E-01   12.0110           0
      6362 MEMB     48       POPS     HX       HAL2     0.900000E-01   1.00800           0
      6363 MEMB     48       POPS     HY       HAL2     0.900000E-01   1.00800           0
      6364 MEMB     48       POPS     O31      OSL     -0.490000       15.9994           0
      6365 MEMB     48       POPS     C31      CL       0.900000       12.0110           0
      6366 MEMB     48       POPS     O32      OBL     -0.630000       15.9994           0
      6367 MEMB     48       POPS     C32      CTL2    -0.220000       12.0110           0
      6368 MEMB     48       POPS     H2X      HAL2     0.900000E-01   1.00800           0
      6369 MEMB     48       POPS     H2Y      HAL2     0.900000E-01   1.00800           0
      6370 MEMB     48       POPS     C23      CTL2    -0.180000       12.0110           0
      6371 MEMB     48       POPS     H3R      HAL2     0.900000E-01   1.00800           0
      6372 MEMB     48       POPS     H3S      HAL2     0.900000E-01   1.00800           0
      6373 MEMB     48       POPS     C24      CTL2    -0.180000       12.0110           0
      6374 MEMB     48       POPS     H4R      HAL2     0.900000E-01   1.00800           0
      6375 MEMB     48       POPS     H4S      HAL2     0.900000E-01   1.00800           0
      6376 MEMB     48       POPS     C25      CTL2    -0.180000       12.0110           0
      6377 MEMB     48       POPS     H5R      HAL2     0.900000E-01   1.00800           0
      6378 MEMB     48       POPS     H5S      HAL2     0.900000E-01   1.00800           0
      6379 MEMB     48       POPS     C26      CTL2    -0.180000       12.0110           0
      6380 MEMB     48       POPS     H6R      HAL2     0.900000E-01   1.00800           0
      6381 MEMB     48       POPS     H6S      HAL2     0.900000E-01   1.00800           0
      6382 MEMB     48       POPS     C27      CTL2    -0.180000       12.0110           0
      6383 MEMB     48       POPS     H7R      HAL2     0.900000E-01   1.00800           0
      6384 MEMB     48       POPS     H7S      HAL2     0.900000E-01   1.00800           0
      6385 MEMB     48       POPS     C28      CTL2    -0.180000       12.0110           0
      6386 MEMB     48       POPS     H8R      HAL2     0.900000E-01   1.00800           0
      6387 MEMB     48       POPS     H8S      HAL2     0.900000E-01   1.00800           0
      6388 MEMB     48       POPS     C29      CEL1    -0.150000       12.0110           0
      6389 MEMB     48       POPS     H91      HEL1     0.150000       1.00800           0
      6390 MEMB     48       POPS     C210     CEL1    -0.150000       12.0110           0
      6391 MEMB     48       POPS     H101     HEL1     0.150000       1.00800           0
      6392 MEMB     48       POPS     C211     CTL2    -0.180000       12.0110           0
      6393 MEMB     48       POPS     H11R     HAL2     0.900000E-01   1.00800           0
      6394 MEMB     48       POPS     H11S     HAL2     0.900000E-01   1.00800           0
      6395 MEMB     48       POPS     C212     CTL2    -0.180000       12.0110           0
      6396 MEMB     48       POPS     H12R     HAL2     0.900000E-01   1.00800           0
      6397 MEMB     48       POPS     H12S     HAL2     0.900000E-01   1.00800           0
      6398 MEMB     48       POPS     C213     CTL2    -0.180000       12.0110           0
      6399 MEMB     48       POPS     H13R     HAL2     0.900000E-01   1.00800           0
      6400 MEMB     48       POPS     H13S     HAL2     0.900000E-01   1.00800           0
      6401 MEMB     48       POPS     C214     CTL2    -0.180000       12.0110           0
      6402 MEMB     48       POPS     H14R     HAL2     0.900000E-01   1.00800           0
      6403 MEMB     48       POPS     H14S     HAL2     0.900000E-01   1.00800           0
      6404 MEMB     48       POPS     C215     CTL2    -0.180000       12.0110           0
      6405 MEMB     48       POPS     H15R     HAL2     0.900000E-01   1.00800           0
      6406 MEMB     48       POPS     H15S     HAL2     0.900000E-01   1.00800           0
      6407 MEMB     48       POPS     C216     CTL2    -0.180000       12.0110           0
      6408 MEMB     48       POPS     H16R     HAL2     0.900000E-01   1.00800           0
      6409 MEMB     48       POPS     H16S     HAL2     0.900000E-01   1.00800           0
      6410 MEMB     48       POPS     C217     CTL2    -0.180000       12.0110           0
      6411 MEMB     48       POPS     H17R     HAL2     0.900000E-01   1.00800           0
      6412 MEMB     48       POPS     H17S     HAL2     0.900000E-01   1.00800           0
      6413 MEMB     48       POPS     C218     CTL3    -0.270000       12.0110           0
      6414 MEMB     48       POPS     H18R     HAL3     0.900000E-01   1.00800           0
      6415 MEMB     48       POPS     H18S     HAL3     0.900000E-01   1.00800           0
      6416 MEMB     48       POPS     H18T     HAL3     0.900000E-01   1.00800           0
      6417 MEMB     48       POPS     C33      CTL2    -0.180000       12.0110           0
      6418 MEMB     48       POPS     H3X      HAL2     0.900000E-01   1.00800           0
      6419 MEMB     48       POPS     H3Y      HAL2     0.900000E-01   1.00800           0
      6420 MEMB     48       POPS     C34      CTL2    -0.180000       12.0110           0
      6421 MEMB     48       POPS     H4X      HAL2     0.900000E-01   1.00800           0
      6422 MEMB     48       POPS     H4Y      HAL2     0.900000E-01   1.00800           0
      6423 MEMB     48       POPS     C35      CTL2    -0.180000       12.0110           0
      6424 MEMB     48       POPS     H5X      HAL2     0.900000E-01   1.00800           0
      6425 MEMB     48       POPS     H5Y      HAL2     0.900000E-01   1.00800           0
      6426 MEMB     48       POPS     C36      CTL2    -0.180000       12.0110           0
      6427 MEMB     48       POPS     H6X      HAL2     0.900000E-01   1.00800           0
      6428 MEMB     48       POPS     H6Y      HAL2     0.900000E-01   1.00800           0
      6429 MEMB     48       POPS     C37      CTL2    -0.180000       12.0110           0
      6430 MEMB     48       POPS     H7X      HAL2     0.900000E-01   1.00800           0
      6431 MEMB     48       POPS     H7Y      HAL2     0.900000E-01   1.00800           0
      6432 MEMB     48       POPS     C38      CTL2    -0.180000       12.0110           0
      6433 MEMB     48       POPS     H8X      HAL2     0.900000E-01   1.00800           0
      6434 MEMB     48       POPS     H8Y      HAL2     0.900000E-01   1.00800           0
      6435 MEMB     48       POPS     C39      CTL2    -0.180000       12.0110           0
      6436 MEMB     48       POPS     H9X      HAL2     0.900000E-01   1.00800           0
      6437 MEMB     48       POPS     H9Y      HAL2     0.900000E-01   1.00800           0
      6438 MEMB     48       POPS     C310     CTL2    -0.180000       12.0110           0
      6439 MEMB     48       POPS     H10X     HAL2     0.900000E-01   1.00800           0
      6440 MEMB     48       POPS     H10Y     HAL2     0.900000E-01   1.00800           0
      6441 MEMB     48       POPS     C311     CTL2    -0.180000       12.0110           0
      6442 MEMB     48       POPS     H11X     HAL2     0.900000E-01   1.00800           0
      6443 MEMB     48       POPS     H11Y     HAL2     0.900000E-01   1.00800           0
      6444 MEMB     48       POPS     C312     CTL2    -0.180000       12.0110           0
      6445 MEMB     48       POPS     H12X     HAL2     0.900000E-01   1.00800           0
      6446 MEMB     48       POPS     H12Y     HAL2     0.900000E-01   1.00800           0
      6447 MEMB     48       POPS     C313     CTL2    -0.180000       12.0110           0
      6448 MEMB     48       POPS     H13X     HAL2     0.900000E-01   1.00800           0
      6449 MEMB     48       POPS     H13Y     HAL2     0.900000E-01   1.00800           0
      6450 MEMB     48       POPS     C314     CTL2    -0.180000       12.0110           0
      6451 MEMB     48       POPS     H14X     HAL2     0.900000E-01   1.00800           0
      6452 MEMB     48       POPS     H14Y     HAL2     0.900000E-01   1.00800           0
      6453 MEMB     48       POPS     C315     CTL2    -0.180000       12.0110           0
      6454 MEMB     48       POPS     H15X     HAL2     0.900000E-01   1.00800           0
      6455 MEMB     48       POPS     H15Y     HAL2     0.900000E-01   1.00800           0
      6456 MEMB     48       POPS     C316     CTL3    -0.270000       12.0110           0
      6457 MEMB     48       POPS     H16X     HAL3     0.900000E-01   1.00800           0
      6458 MEMB     48       POPS     H16Y     HAL3     0.900000E-01   1.00800           0
      6459 MEMB     48       POPS     H16Z     HAL3     0.900000E-01   1.00800           0
      6460 MEMB     49       POPS     N        NH3L    -0.300000       14.0070           0
      6461 MEMB     49       POPS     HN1      HCL      0.330000       1.00800           0
      6462 MEMB     49       POPS     HN2      HCL      0.330000       1.00800           0
      6463 MEMB     49       POPS     HN3      HCL      0.330000       1.00800           0
      6464 MEMB     49       POPS     C12      CTL1     0.210000       12.0110           0
      6465 MEMB     49       POPS     H12A     HBL      0.100000       1.00800           0
      6466 MEMB     49       POPS     C13      CCL      0.340000       12.0110           0
      6467 MEMB     49       POPS     O13A     OCL     -0.670000       15.9994           0
      6468 MEMB     49       POPS     O13B     OCL     -0.670000       15.9994           0
      6469 MEMB     49       POPS     C11      CTL2    -0.800000E-01   12.0110           0
      6470 MEMB     49       POPS     H11A     HAL2     0.900000E-01   1.00800           0
      6471 MEMB     49       POPS     H11B     HAL2     0.900000E-01   1.00800           0
      6472 MEMB     49       POPS     P        PL        1.50000       30.9740           0
      6473 MEMB     49       POPS     O13      O2L     -0.780000       15.9994           0
      6474 MEMB     49       POPS     O14      O2L     -0.780000       15.9994           0
      6475 MEMB     49       POPS     O12      OSLP    -0.570000       15.9994           0
      6476 MEMB     49       POPS     O11      OSLP    -0.570000       15.9994           0
      6477 MEMB     49       POPS     C1       CTL2    -0.800000E-01   12.0110           0
      6478 MEMB     49       POPS     HA       HAL2     0.900000E-01   1.00800           0
      6479 MEMB     49       POPS     HB       HAL2     0.900000E-01   1.00800           0
      6480 MEMB     49       POPS     C2       CTL1     0.170000       12.0110           0
      6481 MEMB     49       POPS     HS       HAL1     0.900000E-01   1.00800           0
      6482 MEMB     49       POPS     O21      OSL     -0.490000       15.9994           0
      6483 MEMB     49       POPS     C21      CL       0.900000       12.0110           0
      6484 MEMB     49       POPS     O22      OBL     -0.630000       15.9994           0
      6485 MEMB     49       POPS     C22      CTL2    -0.220000       12.0110           0
      6486 MEMB     49       POPS     H2R      HAL2     0.900000E-01   1.00800           0
      6487 MEMB     49       POPS     H2S      HAL2     0.900000E-01   1.00800           0
      6488 MEMB     49       POPS     C3       CTL2     0.800000E-01   12.0110           0
      6489 MEMB     49       POPS     HX       HAL2     0.900000E-01   1.00800           0
      6490 MEMB     49       POPS     HY       HAL2     0.900000E-01   1.00800           0
      6491 MEMB     49       POPS     O31      OSL     -0.490000       15.9994           0
      6492 MEMB     49       POPS     C31      CL       0.900000       12.0110           0
      6493 MEMB     49       POPS     O32      OBL     -0.630000       15.9994           0
      6494 MEMB     49       POPS     C32      CTL2    -0.220000       12.0110           0
      6495 MEMB     49       POPS     H2X      HAL2     0.900000E-01   1.00800           0
      6496 MEMB     49       POPS     H2Y      HAL2     0.900000E-01   1.00800           0
      6497 MEMB     49       POPS     C23      CTL2    -0.180000       12.0110           0
      6498 MEMB     49       POPS     H3R      HAL2     0.900000E-01   1.00800           0
      6499 MEMB     49       POPS     H3S      HAL2     0.900000E-01   1.00800           0
      6500 MEMB     49       POPS     C24      CTL2    -0.180000       12.0110           0
      6501 MEMB     49       POPS     H4R      HAL2     0.900000E-01   1.00800           0
      6502 MEMB     49       POPS     H4S      HAL2     0.900000E-01   1.00800           0
      6503 MEMB     49       POPS     C25      CTL2    -0.180000       12.0110           0
      6504 MEMB     49       POPS     H5R      HAL2     0.900000E-01   1.00800           0
      6505 MEMB     49       POPS     H5S      HAL2     0.900000E-01   1.00800           0
      6506 MEMB     49       POPS     C26      CTL2    -0.180000       12.0110           0
      6507 MEMB     49       POPS     H6R      HAL2     0.900000E-01   1.00800           0
      6508 MEMB     49       POPS     H6S      HAL2     0.900000E-01   1.00800           0
      6509 MEMB     49       POPS     C27      CTL2    -0.180000       12.0110           0
      6510 MEMB     49       POPS     H7R      HAL2     0.900000E-01   1.00800           0
      6511 MEMB     49       POPS     H7S      HAL2     0.900000E-01   1.00800           0
      6512 MEMB     49       POPS     C28      CTL2    -0.180000       12.0110           0
      6513 MEMB     49       POPS     H8R      HAL2     0.900000E-01   1.00800           0
      6514 MEMB     49       POPS     H8S      HAL2     0.900000E-01   1.00800           0
      6515 MEMB     49       POPS     C29      CEL1    -0.150000       12.0110           0
      6516 MEMB     49       POPS     H91      HEL1     0.150000       1.00800           0
      6517 MEMB     49       POPS     C210     CEL1    -0.150000       12.0110           0
      6518 MEMB     49       POPS     H101     HEL1     0.150000       1.00800           0
      6519 MEMB     49       POPS     C211     CTL2    -0.180000       12.0110           0
      6520 MEMB     49       POPS     H11R     HAL2     0.900000E-01   1.00800           0
      6521 MEMB     49       POPS     H11S     HAL2     0.900000E-01   1.00800           0
      6522 MEMB     49       POPS     C212     CTL2    -0.180000       12.0110           0
      6523 MEMB     49       POPS     H12R     HAL2     0.900000E-01   1.00800           0
      6524 MEMB     49       POPS     H12S     HAL2     0.900000E-01   1.00800           0
      6525 MEMB     49       POPS     C213     CTL2    -0.180000       12.0110           0
      6526 MEMB     49       POPS     H13R     HAL2     0.900000E-01   1.00800           0
      6527 MEMB     49       POPS     H13S     HAL2     0.900000E-01   1.00800           0
      6528 MEMB     49       POPS     C214     CTL2    -0.180000       12.0110           0
      6529 MEMB     49       POPS     H14R     HAL2     0.900000E-01   1.00800           0
      6530 MEMB     49       POPS     H14S     HAL2     0.900000E-01   1.00800           0
      6531 MEMB     49       POPS     C215     CTL2    -0.180000       12.0110           0
      6532 MEMB     49       POPS     H15R     HAL2     0.900000E-01   1.00800           0
      6533 MEMB     49       POPS     H15S     HAL2     0.900000E-01   1.00800           0
      6534 MEMB     49       POPS     C216     CTL2    -0.180000       12.0110           0
      6535 MEMB     49       POPS     H16R     HAL2     0.900000E-01   1.00800           0
      6536 MEMB     49       POPS     H16S     HAL2     0.900000E-01   1.00800           0
      6537 MEMB     49       POPS     C217     CTL2    -0.180000       12.0110           0
      6538 MEMB     49       POPS     H17R     HAL2     0.900000E-01   1.00800           0
      6539 MEMB     49       POPS     H17S     HAL2     0.900000E-01   1.00800           0
      6540 MEMB     49       POPS     C218     CTL3    -0.270000       12.0110           0
      6541 MEMB     49       POPS     H18R     HAL3     0.900000E-01   1.00800           0
      6542 MEMB     49       POPS     H18S     HAL3     0.900000E-01   1.00800           0
      6543 MEMB     49       POPS     H18T     HAL3     0.900000E-01   1.00800           0
      6544 MEMB     49       POPS     C33      CTL2    -0.180000       12.0110           0
      6545 MEMB     49       POPS     H3X      HAL2     0.900000E-01   1.00800           0
      6546 MEMB     49       POPS     H3Y      HAL2     0.900000E-01   1.00800           0
      6547 MEMB     49       POPS     C34      CTL2    -0.180000       12.0110           0
      6548 MEMB     49       POPS     H4X      HAL2     0.900000E-01   1.00800           0
      6549 MEMB     49       POPS     H4Y      HAL2     0.900000E-01   1.00800           0
      6550 MEMB     49       POPS     C35      CTL2    -0.180000       12.0110           0
      6551 MEMB     49       POPS     H5X      HAL2     0.900000E-01   1.00800           0
      6552 MEMB     49       POPS     H5Y      HAL2     0.900000E-01   1.00800           0
      6553 MEMB     49       POPS     C36      CTL2    -0.180000       12.0110           0
      6554 MEMB     49       POPS     H6X      HAL2     0.900000E-01   1.00800           0
      6555 MEMB     49       POPS     H6Y      HAL2     0.900000E-01   1.00800           0
      6556 MEMB     49       POPS     C37      CTL2    -0.180000       12.0110           0
      6557 MEMB     49       POPS     H7X      HAL2     0.900000E-01   1.00800           0
      6558 MEMB     49       POPS     H7Y      HAL2     0.900000E-01   1.00800           0
      6559 MEMB     49       POPS     C38      CTL2    -0.180000       12.0110           0
      6560 MEMB     49       POPS     H8X      HAL2     0.900000E-01   1.00800           0
      6561 MEMB     49       POPS     H8Y      HAL2     0.900000E-01   1.00800           0
      6562 MEMB     49       POPS     C39      CTL2    -0.180000       12.0110           0
      6563 MEMB     49       POPS     H9X      HAL2     0.900000E-01   1.00800           0
      6564 MEMB     49       POPS     H9Y      HAL2     0.900000E-01   1.00800           0
      6565 MEMB     49       POPS     C310     CTL2    -0.180000       12.0110           0
      6566 MEMB     49       POPS     H10X     HAL2     0.900000E-01   1.00800           0
      6567 MEMB     49       POPS     H10Y     HAL2     0.900000E-01   1.00800           0
      6568 MEMB     49       POPS     C311     CTL2    -0.180000       12.0110           0
      6569 MEMB     49       POPS     H11X     HAL2     0.900000E-01   1.00800           0
      6570 MEMB     49       POPS     H11Y     HAL2     0.900000E-01   1.00800           0
      6571 MEMB     49       POPS     C312     CTL2    -0.180000       12.0110           0
      6572 MEMB     49       POPS     H12X     HAL2     0.900000E-01   1.00800           0
      6573 MEMB     49       POPS     H12Y     HAL2     0.900000E-01   1.00800           0
      6574 MEMB     49       POPS     C313     CTL2    -0.180000       12.0110           0
      6575 MEMB     49       POPS     H13X     HAL2     0.900000E-01   1.00800           0
      6576 MEMB     49       POPS     H13Y     HAL2     0.900000E-01   1.00800           0
      6577 MEMB     49       POPS     C314     CTL2    -0.180000       12.0110           0
      6578 MEMB     49       POPS     H14X     HAL2     0.900000E-01   1.00800           0
      6579 MEMB     49       POPS     H14Y     HAL2     0.900000E-01   1.00800           0
      6580 MEMB     49       POPS     C315     CTL2    -0.180000       12.0110           0
      6581 MEMB     49       POPS     H15X     HAL2     0.900000E-01   1.00800           0
      6582 MEMB     49       POPS     H15Y     HAL2     0.900000E-01   1.00800           0
      6583 MEMB     49       POPS     C316     CTL3    -0.270000       12.0110           0
      6584 MEMB     49       POPS     H16X     HAL3     0.900000E-01   1.00800           0
      6585 MEMB     49       POPS     H16Y     HAL3     0.900000E-01   1.00800           0
      6586 MEMB     49       POPS     H16Z     HAL3     0.900000E-01   1.00800           0
      6587 MEMB     50       POPC     N        NTL     -0.600000       14.0070           0
      6588 MEMB     50       POPC     C12      CTL2    -0.100000       12.0110           0
      6589 MEMB     50       POPC     H12A     HL       0.250000       1.00800           0
      6590 MEMB     50       POPC     H12B     HL       0.250000       1.00800           0
      6591 MEMB     50       POPC     C13      CTL5    -0.350000       12.0110           0
      6592 MEMB     50       POPC     H13A     HL       0.250000       1.00800           0
      6593 MEMB     50       POPC     H13B     HL       0.250000       1.00800           0
      6594 MEMB     50       POPC     H13C     HL       0.250000       1.00800           0
      6595 MEMB     50       POPC     C14      CTL5    -0.350000       12.0110           0
      6596 MEMB     50       POPC     H14A     HL       0.250000       1.00800           0
      6597 MEMB     50       POPC     H14B     HL       0.250000       1.00800           0
      6598 MEMB     50       POPC     H14C     HL       0.250000       1.00800           0
      6599 MEMB     50       POPC     C15      CTL5    -0.350000       12.0110           0
      6600 MEMB     50       POPC     H15A     HL       0.250000       1.00800           0
      6601 MEMB     50       POPC     H15B     HL       0.250000       1.00800           0
      6602 MEMB     50       POPC     H15C     HL       0.250000       1.00800           0
      6603 MEMB     50       POPC     C11      CTL2    -0.800000E-01   12.0110           0
      6604 MEMB     50       POPC     H11A     HAL2     0.900000E-01   1.00800           0
      6605 MEMB     50       POPC     H11B     HAL2     0.900000E-01   1.00800           0
      6606 MEMB     50       POPC     P        PL        1.50000       30.9740           0
      6607 MEMB     50       POPC     O13      O2L     -0.780000       15.9994           0
      6608 MEMB     50       POPC     O14      O2L     -0.780000       15.9994           0
      6609 MEMB     50       POPC     O12      OSLP    -0.570000       15.9994           0
      6610 MEMB     50       POPC     O11      OSLP    -0.570000       15.9994           0
      6611 MEMB     50       POPC     C1       CTL2    -0.800000E-01   12.0110           0
      6612 MEMB     50       POPC     HA       HAL2     0.900000E-01   1.00800           0
      6613 MEMB     50       POPC     HB       HAL2     0.900000E-01   1.00800           0
      6614 MEMB     50       POPC     C2       CTL1     0.170000       12.0110           0
      6615 MEMB     50       POPC     HS       HAL1     0.900000E-01   1.00800           0
      6616 MEMB     50       POPC     O21      OSL     -0.490000       15.9994           0
      6617 MEMB     50       POPC     C21      CL       0.900000       12.0110           0
      6618 MEMB     50       POPC     O22      OBL     -0.630000       15.9994           0
      6619 MEMB     50       POPC     C22      CTL2    -0.220000       12.0110           0
      6620 MEMB     50       POPC     H2R      HAL2     0.900000E-01   1.00800           0
      6621 MEMB     50       POPC     H2S      HAL2     0.900000E-01   1.00800           0
      6622 MEMB     50       POPC     C3       CTL2     0.800000E-01   12.0110           0
      6623 MEMB     50       POPC     HX       HAL2     0.900000E-01   1.00800           0
      6624 MEMB     50       POPC     HY       HAL2     0.900000E-01   1.00800           0
      6625 MEMB     50       POPC     O31      OSL     -0.490000       15.9994           0
      6626 MEMB     50       POPC     C31      CL       0.900000       12.0110           0
      6627 MEMB     50       POPC     O32      OBL     -0.630000       15.9994           0
      6628 MEMB     50       POPC     C32      CTL2    -0.220000       12.0110           0
      6629 MEMB     50       POPC     H2X      HAL2     0.900000E-01   1.00800           0
      6630 MEMB     50       POPC     H2Y      HAL2     0.900000E-01   1.00800           0
      6631 MEMB     50       POPC     C23      CTL2    -0.180000       12.0110           0
      6632 MEMB     50       POPC     H3R      HAL2     0.900000E-01   1.00800           0
      6633 MEMB     50       POPC     H3S      HAL2     0.900000E-01   1.00800           0
      6634 MEMB     50       POPC     C24      CTL2    -0.180000       12.0110           0
      6635 MEMB     50       POPC     H4R      HAL2     0.900000E-01   1.00800           0
      6636 MEMB     50       POPC     H4S      HAL2     0.900000E-01   1.00800           0
      6637 MEMB     50       POPC     C25      CTL2    -0.180000       12.0110           0
      6638 MEMB     50       POPC     H5R      HAL2     0.900000E-01   1.00800           0
      6639 MEMB     50       POPC     H5S      HAL2     0.900000E-01   1.00800           0
      6640 MEMB     50       POPC     C26      CTL2    -0.180000       12.0110           0
      6641 MEMB     50       POPC     H6R      HAL2     0.900000E-01   1.00800           0
      6642 MEMB     50       POPC     H6S      HAL2     0.900000E-01   1.00800           0
      6643 MEMB     50       POPC     C27      CTL2    -0.180000       12.0110           0
      6644 MEMB     50       POPC     H7R      HAL2     0.900000E-01   1.00800           0
      6645 MEMB     50       POPC     H7S      HAL2     0.900000E-01   1.00800           0
      6646 MEMB     50       POPC     C28      CTL2    -0.180000       12.0110           0
      6647 MEMB     50       POPC     H8R      HAL2     0.900000E-01   1.00800           0
      6648 MEMB     50       POPC     H8S      HAL2     0.900000E-01   1.00800           0
      6649 MEMB     50       POPC     C29      CEL1    -0.150000       12.0110           0
      6650 MEMB     50       POPC     H91      HEL1     0.150000       1.00800           0
      6651 MEMB     50       POPC     C210     CEL1    -0.150000       12.0110           0
      6652 MEMB     50       POPC     H101     HEL1     0.150000       1.00800           0
      6653 MEMB     50       POPC     C211     CTL2    -0.180000       12.0110           0
      6654 MEMB     50       POPC     H11R     HAL2     0.900000E-01   1.00800           0
      6655 MEMB     50       POPC     H11S     HAL2     0.900000E-01   1.00800           0
      6656 MEMB     50       POPC     C212     CTL2    -0.180000       12.0110           0
      6657 MEMB     50       POPC     H12R     HAL2     0.900000E-01   1.00800           0
      6658 MEMB     50       POPC     H12S     HAL2     0.900000E-01   1.00800           0
      6659 MEMB     50       POPC     C213     CTL2    -0.180000       12.0110           0
      6660 MEMB     50       POPC     H13R     HAL2     0.900000E-01   1.00800           0
      6661 MEMB     50       POPC     H13S     HAL2     0.900000E-01   1.00800           0
      6662 MEMB     50       POPC     C214     CTL2    -0.180000       12.0110           0
      6663 MEMB     50       POPC     H14R     HAL2     0.900000E-01   1.00800           0
      6664 MEMB     50       POPC     H14S     HAL2     0.900000E-01   1.00800           0
      6665 MEMB     50       POPC     C215     CTL2    -0.180000       12.0110           0
      6666 MEMB     50       POPC     H15R     HAL2     0.900000E-01   1.00800           0
      6667 MEMB     50       POPC     H15S     HAL2     0.900000E-01   1.00800           0
      6668 MEMB     50       POPC     C216     CTL2    -0.180000       12.0110           0
      6669 MEMB     50       POPC     H16R     HAL2     0.900000E-01   1.00800           0
      6670 MEMB     50       POPC     H16S     HAL2     0.900000E-01   1.00800           0
      6671 MEMB     50       POPC     C217     CTL2    -0.180000       12.0110           0
      6672 MEMB     50       POPC     H17R     HAL2     0.900000E-01   1.00800           0
      6673 MEMB     50       POPC     H17S     HAL2     0.900000E-01   1.00800           0
      6674 MEMB     50       POPC     C218     CTL3    -0.270000       12.0110           0
      6675 MEMB     50       POPC     H18R     HAL3     0.900000E-01   1.00800           0
      6676 MEMB     50       POPC     H18S     HAL3     0.900000E-01   1.00800           0
      6677 MEMB     50       POPC     H18T     HAL3     0.900000E-01   1.00800           0
      6678 MEMB     50       POPC     C33      CTL2    -0.180000       12.0110           0
      6679 MEMB     50       POPC     H3X      HAL2     0.900000E-01   1.00800           0
      6680 MEMB     50       POPC     H3Y      HAL2     0.900000E-01   1.00800           0
      6681 MEMB     50       POPC     C34      CTL2    -0.180000       12.0110           0
      6682 MEMB     50       POPC     H4X      HAL2     0.900000E-01   1.00800           0
      6683 MEMB     50       POPC     H4Y      HAL2     0.900000E-01   1.00800           0
      6684 MEMB     50       POPC     C35      CTL2    -0.180000       12.0110           0
      6685 MEMB     50       POPC     H5X      HAL2     0.900000E-01   1.00800           0
      6686 MEMB     50       POPC     H5Y      HAL2     0.900000E-01   1.00800           0
      6687 MEMB     50       POPC     C36      CTL2    -0.180000       12.0110           0
      6688 MEMB     50       POPC     H6X      HAL2     0.900000E-01   1.00800           0
      6689 MEMB     50       POPC     H6Y      HAL2     0.900000E-01   1.00800           0
      6690 MEMB     50       POPC     C37      CTL2    -0.180000       12.0110           0
      6691 MEMB     50       POPC     H7X      HAL2     0.900000E-01   1.00800           0
      6692 MEMB     50       POPC     H7Y      HAL2     0.900000E-01   1.00800           0
      6693 MEMB     50       POPC     C38      CTL2    -0.180000       12.0110           0
      6694 MEMB     50       POPC     H8X      HAL2     0.900000E-01   1.00800           0
      6695 MEMB     50       POPC     H8Y      HAL2     0.900000E-01   1.00800           0
      6696 MEMB     50       POPC     C39      CTL2    -0.180000       12.0110           0
      6697 MEMB     50       POPC     H9X      HAL2     0.900000E-01   1.00800           0
      6698 MEMB     50       POPC     H9Y      HAL2     0.900000E-01   1.00800           0
      6699 MEMB     50       POPC     C310     CTL2    -0.180000       12.0110           0
      6700 MEMB     50       POPC     H10X     HAL2     0.900000E-01   1.00800           0
      6701 MEMB     50       POPC     H10Y     HAL2     0.900000E-01   1.00800           0
      6702 MEMB     50       POPC     C311     CTL2    -0.180000       12.0110           0
      6703 MEMB     50       POPC     H11X     HAL2     0.900000E-01   1.00800           0
      6704 MEMB     50       POPC     H11Y     HAL2     0.900000E-01   1.00800           0
      6705 MEMB     50       POPC     C312     CTL2    -0.180000       12.0110           0
      6706 MEMB     50       POPC     H12X     HAL2     0.900000E-01   1.00800           0
      6707 MEMB     50       POPC     H12Y     HAL2     0.900000E-01   1.00800           0
      6708 MEMB     50       POPC     C313     CTL2    -0.180000       12.0110           0
      6709 MEMB     50       POPC     H13X     HAL2     0.900000E-01   1.00800           0
      6710 MEMB     50       POPC     H13Y     HAL2     0.900000E-01   1.00800           0
      6711 MEMB     50       POPC     C314     CTL2    -0.180000       12.0110           0
      6712 MEMB     50       POPC     H14X     HAL2     0.900000E-01   1.00800           0
      6713 MEMB     50       POPC     H14Y     HAL2     0.900000E-01   1.00800           0
      6714 MEMB     50       POPC     C315     CTL2    -0.180000       12.0110           0
      6715 MEMB     50       POPC     H15X     HAL2     0.900000E-01   1.00800           0
      6716 MEMB     50       POPC     H15Y     HAL2     0.900000E-01   1.00800           0
      6717 MEMB     50       POPC     C316     CTL3    -0.270000       12.0110           0
      6718 MEMB     50       POPC     H16X     HAL3     0.900000E-01   1.00800           0
      6719 MEMB     50       POPC     H16Y     HAL3     0.900000E-01   1.00800           0
      6720 MEMB     50       POPC     H16Z     HAL3     0.900000E-01   1.00800           0
      6721 MEMB     51       POPC     N        NTL     -0.600000       14.0070           0
      6722 MEMB     51       POPC     C12      CTL2    -0.100000       12.0110           0
      6723 MEMB     51       POPC     H12A     HL       0.250000       1.00800           0
      6724 MEMB     51       POPC     H12B     HL       0.250000       1.00800           0
      6725 MEMB     51       POPC     C13      CTL5    -0.350000       12.0110           0
      6726 MEMB     51       POPC     H13A     HL       0.250000       1.00800           0
      6727 MEMB     51       POPC     H13B     HL       0.250000       1.00800           0
      6728 MEMB     51       POPC     H13C     HL       0.250000       1.00800           0
      6729 MEMB     51       POPC     C14      CTL5    -0.350000       12.0110           0
      6730 MEMB     51       POPC     H14A     HL       0.250000       1.00800           0
      6731 MEMB     51       POPC     H14B     HL       0.250000       1.00800           0
      6732 MEMB     51       POPC     H14C     HL       0.250000       1.00800           0
      6733 MEMB     51       POPC     C15      CTL5    -0.350000       12.0110           0
      6734 MEMB     51       POPC     H15A     HL       0.250000       1.00800           0
      6735 MEMB     51       POPC     H15B     HL       0.250000       1.00800           0
      6736 MEMB     51       POPC     H15C     HL       0.250000       1.00800           0
      6737 MEMB     51       POPC     C11      CTL2    -0.800000E-01   12.0110           0
      6738 MEMB     51       POPC     H11A     HAL2     0.900000E-01   1.00800           0
      6739 MEMB     51       POPC     H11B     HAL2     0.900000E-01   1.00800           0
      6740 MEMB     51       POPC     P        PL        1.50000       30.9740           0
      6741 MEMB     51       POPC     O13      O2L     -0.780000       15.9994           0
      6742 MEMB     51       POPC     O14      O2L     -0.780000       15.9994           0
      6743 MEMB     51       POPC     O12      OSLP    -0.570000       15.9994           0
      6744 MEMB     51       POPC     O11      OSLP    -0.570000       15.9994           0
      6745 MEMB     51       POPC     C1       CTL2    -0.800000E-01   12.0110           0
      6746 MEMB     51       POPC     HA       HAL2     0.900000E-01   1.00800           0
      6747 MEMB     51       POPC     HB       HAL2     0.900000E-01   1.00800           0
      6748 MEMB     51       POPC     C2       CTL1     0.170000       12.0110           0
      6749 MEMB     51       POPC     HS       HAL1     0.900000E-01   1.00800           0
      6750 MEMB     51       POPC     O21      OSL     -0.490000       15.9994           0
      6751 MEMB     51       POPC     C21      CL       0.900000       12.0110           0
      6752 MEMB     51       POPC     O22      OBL     -0.630000       15.9994           0
      6753 MEMB     51       POPC     C22      CTL2    -0.220000       12.0110           0
      6754 MEMB     51       POPC     H2R      HAL2     0.900000E-01   1.00800           0
      6755 MEMB     51       POPC     H2S      HAL2     0.900000E-01   1.00800           0
      6756 MEMB     51       POPC     C3       CTL2     0.800000E-01   12.0110           0
      6757 MEMB     51       POPC     HX       HAL2     0.900000E-01   1.00800           0
      6758 MEMB     51       POPC     HY       HAL2     0.900000E-01   1.00800           0
      6759 MEMB     51       POPC     O31      OSL     -0.490000       15.9994           0
      6760 MEMB     51       POPC     C31      CL       0.900000       12.0110           0
      6761 MEMB     51       POPC     O32      OBL     -0.630000       15.9994           0
      6762 MEMB     51       POPC     C32      CTL2    -0.220000       12.0110           0
      6763 MEMB     51       POPC     H2X      HAL2     0.900000E-01   1.00800           0
      6764 MEMB     51       POPC     H2Y      HAL2     0.900000E-01   1.00800           0
      6765 MEMB     51       POPC     C23      CTL2    -0.180000       12.0110           0
      6766 MEMB     51       POPC     H3R      HAL2     0.900000E-01   1.00800           0
      6767 MEMB     51       POPC     H3S      HAL2     0.900000E-01   1.00800           0
      6768 MEMB     51       POPC     C24      CTL2    -0.180000       12.0110           0
      6769 MEMB     51       POPC     H4R      HAL2     0.900000E-01   1.00800           0
      6770 MEMB     51       POPC     H4S      HAL2     0.900000E-01   1.00800           0
      6771 MEMB     51       POPC     C25      CTL2    -0.180000       12.0110           0
      6772 MEMB     51       POPC     H5R      HAL2     0.900000E-01   1.00800           0
      6773 MEMB     51       POPC     H5S      HAL2     0.900000E-01   1.00800           0
      6774 MEMB     51       POPC     C26      CTL2    -0.180000       12.0110           0
      6775 MEMB     51       POPC     H6R      HAL2     0.900000E-01   1.00800           0
      6776 MEMB     51       POPC     H6S      HAL2     0.900000E-01   1.00800           0
      6777 MEMB     51       POPC     C27      CTL2    -0.180000       12.0110           0
      6778 MEMB     51       POPC     H7R      HAL2     0.900000E-01   1.00800           0
      6779 MEMB     51       POPC     H7S      HAL2     0.900000E-01   1.00800           0
      6780 MEMB     51       POPC     C28      CTL2    -0.180000       12.0110           0
      6781 MEMB     51       POPC     H8R      HAL2     0.900000E-01   1.00800           0
      6782 MEMB     51       POPC     H8S      HAL2     0.900000E-01   1.00800           0
      6783 MEMB     51       POPC     C29      CEL1    -0.150000       12.0110           0
      6784 MEMB     51       POPC     H91      HEL1     0.150000       1.00800           0
      6785 MEMB     51       POPC     C210     CEL1    -0.150000       12.0110           0
      6786 MEMB     51       POPC     H101     HEL1     0.150000       1.00800           0
      6787 MEMB     51       POPC     C211     CTL2    -0.180000       12.0110           0
      6788 MEMB     51       POPC     H11R     HAL2     0.900000E-01   1.00800           0
      6789 MEMB     51       POPC     H11S     HAL2     0.900000E-01   1.00800           0
      6790 MEMB     51       POPC     C212     CTL2    -0.180000       12.0110           0
      6791 MEMB     51       POPC     H12R     HAL2     0.900000E-01   1.00800           0
      6792 MEMB     51       POPC     H12S     HAL2     0.900000E-01   1.00800           0
      6793 MEMB     51       POPC     C213     CTL2    -0.180000       12.0110           0
      6794 MEMB     51       POPC     H13R     HAL2     0.900000E-01   1.00800           0
      6795 MEMB     51       POPC     H13S     HAL2     0.900000E-01   1.00800           0
      6796 MEMB     51       POPC     C214     CTL2    -0.180000       12.0110           0
      6797 MEMB     51       POPC     H14R     HAL2     0.900000E-01   1.00800           0
      6798 MEMB     51       POPC     H14S     HAL2     0.900000E-01   1.00800           0
      6799 MEMB     51       POPC     C215     CTL2    -0.180000       12.0110           0
      6800 MEMB     51       POPC     H15R     HAL2     0.900000E-01   1.00800           0
      6801 MEMB     51       POPC     H15S     HAL2     0.900000E-01   1.00800           0
      6802 MEMB     51       POPC     C216     CTL2    -0.180000       12.0110           0
      6803 MEMB     51       POPC     H16R     HAL2     0.900000E-01   1.00800           0
      6804 MEMB     51       POPC     H16S     HAL2     0.900000E-01   1.00800           0
      6805 MEMB     51       POPC     C217     CTL2    -0.180000       12.0110           0
      6806 MEMB     51       POPC     H17R     HAL2     0.900000E-01   1.00800           0
      6807 MEMB     51       POPC     H17S     HAL2     0.900000E-01   1.00800           0
      6808 MEMB     51       POPC     C218     CTL3    -0.270000       12.0110           0
      6809 MEMB     51       POPC     H18R     HAL3     0.900000E-01   1.00800           0
      6810 MEMB     51       POPC     H18S     HAL3     0.900000E-01   1.00800           0
      6811 MEMB     51       POPC     H18T     HAL3     0.900000E-01   1.00800           0
      6812 MEMB     51       POPC     C33      CTL2    -0.180000       12.0110           0
      6813 MEMB     51       POPC     H3X      HAL2     0.900000E-01   1.00800           0
      6814 MEMB     51       POPC     H3Y      HAL2     0.900000E-01   1.00800           0
      6815 MEMB     51       POPC     C34      CTL2    -0.180000       12.0110           0
      6816 MEMB     51       POPC     H4X      HAL2     0.900000E-01   1.00800           0
      6817 MEMB     51       POPC     H4Y      HAL2     0.900000E-01   1.00800           0
      6818 MEMB     51       POPC     C35      CTL2    -0.180000       12.0110           0
      6819 MEMB     51       POPC     H5X      HAL2     0.900000E-01   1.00800           0
      6820 MEMB     51       POPC     H5Y      HAL2     0.900000E-01   1.00800           0
      6821 MEMB     51       POPC     C36      CTL2    -0.180000       12.0110           0
      6822 MEMB     51       POPC     H6X      HAL2     0.900000E-01   1.00800           0
      6823 MEMB     51       POPC     H6Y      HAL2     0.900000E-01   1.00800           0
      6824 MEMB     51       POPC     C37      CTL2    -0.180000       12.0110           0
      6825 MEMB     51       POPC     H7X      HAL2     0.900000E-01   1.00800           0
      6826 MEMB     51       POPC     H7Y      HAL2     0.900000E-01   1.00800           0
      6827 MEMB     51       POPC     C38      CTL2    -0.180000       12.0110           0
      6828 MEMB     51       POPC     H8X      HAL2     0.900000E-01   1.00800           0
      6829 MEMB     51       POPC     H8Y      HAL2     0.900000E-01   1.00800           0
      6830 MEMB     51       POPC     C39      CTL2    -0.180000       12.0110           0
      6831 MEMB     51       POPC     H9X      HAL2     0.900000E-01   1.00800           0
      6832 MEMB     51       POPC     H9Y      HAL2     0.900000E-01   1.00800           0
      6833 MEMB     51       POPC     C310     CTL2    -0.180000       12.0110           0
      6834 MEMB     51       POPC     H10X     HAL2     0.900000E-01   1.00800           0
      6835 MEMB     51       POPC     H10Y     HAL2     0.900000E-01   1.00800           0
      6836 MEMB     51       POPC     C311     CTL2    -0.180000       12.0110           0
      6837 MEMB     51       POPC     H11X     HAL2     0.900000E-01   1.00800           0
      6838 MEMB     51       POPC     H11Y     HAL2     0.900000E-01   1.00800           0
      6839 MEMB     51       POPC     C312     CTL2    -0.180000       12.0110           0
      6840 MEMB     51       POPC     H12X     HAL2     0.900000E-01   1.00800           0
      6841 MEMB     51       POPC     H12Y     HAL2     0.900000E-01   1.00800           0
      6842 MEMB     51       POPC     C313     CTL2    -0.180000       12.0110           0
      6843 MEMB     51       POPC     H13X     HAL2     0.900000E-01   1.00800           0
      6844 MEMB     51       POPC     H13Y     HAL2     0.900000E-01   1.00800           0
      6845 MEMB     51       POPC     C314     CTL2    -0.180000       12.0110           0
      6846 MEMB     51       POPC     H14X     HAL2     0.900000E-01   1.00800           0
      6847 MEMB     51       POPC     H14Y     HAL2     0.900000E-01   1.00800           0
      6848 MEMB     51       POPC     C315     CTL2    -0.180000       12.0110           0
      6849 MEMB     51       POPC     H15X     HAL2     0.900000E-01   1.00800           0
      6850 MEMB     51       POPC     H15Y     HAL2     0.900000E-01   1.00800           0
      6851 MEMB     51       POPC     C316     CTL3    -0.270000       12.0110           0
      6852 MEMB     51       POPC     H16X     HAL3     0.900000E-01   1.00800           0
      6853 MEMB     51       POPC     H16Y     HAL3     0.900000E-01   1.00800           0
      6854 MEMB     51       POPC     H16Z     HAL3     0.900000E-01   1.00800           0
      6855 MEMB     52       POPC     N        NTL     -0.600000       14.0070           0
      6856 MEMB     52       POPC     C12      CTL2    -0.100000       12.0110           0
      6857 MEMB     52       POPC     H12A     HL       0.250000       1.00800           0
      6858 MEMB     52       POPC     H12B     HL       0.250000       1.00800           0
      6859 MEMB     52       POPC     C13      CTL5    -0.350000       12.0110           0
      6860 MEMB     52       POPC     H13A     HL       0.250000       1.00800           0
      6861 MEMB     52       POPC     H13B     HL       0.250000       1.00800           0
      6862 MEMB     52       POPC     H13C     HL       0.250000       1.00800           0
      6863 MEMB     52       POPC     C14      CTL5    -0.350000       12.0110           0
      6864 MEMB     52       POPC     H14A     HL       0.250000       1.00800           0
      6865 MEMB     52       POPC     H14B     HL       0.250000       1.00800           0
      6866 MEMB     52       POPC     H14C     HL       0.250000       1.00800           0
      6867 MEMB     52       POPC     C15      CTL5    -0.350000       12.0110           0
      6868 MEMB     52       POPC     H15A     HL       0.250000       1.00800           0
      6869 MEMB     52       POPC     H15B     HL       0.250000       1.00800           0
      6870 MEMB     52       POPC     H15C     HL       0.250000       1.00800           0
      6871 MEMB     52       POPC     C11      CTL2    -0.800000E-01   12.0110           0
      6872 MEMB     52       POPC     H11A     HAL2     0.900000E-01   1.00800           0
      6873 MEMB     52       POPC     H11B     HAL2     0.900000E-01   1.00800           0
      6874 MEMB     52       POPC     P        PL        1.50000       30.9740           0
      6875 MEMB     52       POPC     O13      O2L     -0.780000       15.9994           0
      6876 MEMB     52       POPC     O14      O2L     -0.780000       15.9994           0
      6877 MEMB     52       POPC     O12      OSLP    -0.570000       15.9994           0
      6878 MEMB     52       POPC     O11      OSLP    -0.570000       15.9994           0
      6879 MEMB     52       POPC     C1       CTL2    -0.800000E-01   12.0110           0
      6880 MEMB     52       POPC     HA       HAL2     0.900000E-01   1.00800           0
      6881 MEMB     52       POPC     HB       HAL2     0.900000E-01   1.00800           0
      6882 MEMB     52       POPC     C2       CTL1     0.170000       12.0110           0
      6883 MEMB     52       POPC     HS       HAL1     0.900000E-01   1.00800           0
      6884 MEMB     52       POPC     O21      OSL     -0.490000       15.9994           0
      6885 MEMB     52       POPC     C21      CL       0.900000       12.0110           0
      6886 MEMB     52       POPC     O22      OBL     -0.630000       15.9994           0
      6887 MEMB     52       POPC     C22      CTL2    -0.220000       12.0110           0
      6888 MEMB     52       POPC     H2R      HAL2     0.900000E-01   1.00800           0
      6889 MEMB     52       POPC     H2S      HAL2     0.900000E-01   1.00800           0
      6890 MEMB     52       POPC     C3       CTL2     0.800000E-01   12.0110           0
      6891 MEMB     52       POPC     HX       HAL2     0.900000E-01   1.00800           0
      6892 MEMB     52       POPC     HY       HAL2     0.900000E-01   1.00800           0
      6893 MEMB     52       POPC     O31      OSL     -0.490000       15.9994           0
      6894 MEMB     52       POPC     C31      CL       0.900000       12.0110           0
      6895 MEMB     52       POPC     O32      OBL     -0.630000       15.9994           0
      6896 MEMB     52       POPC     C32      CTL2    -0.220000       12.0110           0
      6897 MEMB     52       POPC     H2X      HAL2     0.900000E-01   1.00800           0
      6898 MEMB     52       POPC     H2Y      HAL2     0.900000E-01   1.00800           0
      6899 MEMB     52       POPC     C23      CTL2    -0.180000       12.0110           0
      6900 MEMB     52       POPC     H3R      HAL2     0.900000E-01   1.00800           0
      6901 MEMB     52       POPC     H3S      HAL2     0.900000E-01   1.00800           0
      6902 MEMB     52       POPC     C24      CTL2    -0.180000       12.0110           0
      6903 MEMB     52       POPC     H4R      HAL2     0.900000E-01   1.00800           0
      6904 MEMB     52       POPC     H4S      HAL2     0.900000E-01   1.00800           0
      6905 MEMB     52       POPC     C25      CTL2    -0.180000       12.0110           0
      6906 MEMB     52       POPC     H5R      HAL2     0.900000E-01   1.00800           0
      6907 MEMB     52       POPC     H5S      HAL2     0.900000E-01   1.00800           0
      6908 MEMB     52       POPC     C26      CTL2    -0.180000       12.0110           0
      6909 MEMB     52       POPC     H6R      HAL2     0.900000E-01   1.00800           0
      6910 MEMB     52       POPC     H6S      HAL2     0.900000E-01   1.00800           0
      6911 MEMB     52       POPC     C27      CTL2    -0.180000       12.0110           0
      6912 MEMB     52       POPC     H7R      HAL2     0.900000E-01   1.00800           0
      6913 MEMB     52       POPC     H7S      HAL2     0.900000E-01   1.00800           0
      6914 MEMB     52       POPC     C28      CTL2    -0.180000       12.0110           0
      6915 MEMB     52       POPC     H8R      HAL2     0.900000E-01   1.00800           0
      6916 MEMB     52       POPC     H8S      HAL2     0.900000E-01   1.00800           0
      6917 MEMB     52       POPC     C29      CEL1    -0.150000       12.0110           0
      6918 MEMB     52       POPC     H91      HEL1     0.150000       1.00800           0
      6919 MEMB     52       POPC     C210     CEL1    -0.150000       12.0110           0
      6920 MEMB     52       POPC     H101     HEL1     0.150000       1.00800           0
      6921 MEMB     52       POPC     C211     CTL2    -0.180000       12.0110           0
      6922 MEMB     52       POPC     H11R     HAL2     0.900000E-01   1.00800           0
      6923 MEMB     52       POPC     H11S     HAL2     0.900000E-01   1.00800           0
      6924 MEMB     52       POPC     C212     CTL2    -0.180000       12.0110           0
      6925 MEMB     52       POPC     H12R     HAL2     0.900000E-01   1.00800           0
      6926 MEMB     52       POPC     H12S     HAL2     0.900000E-01   1.00800           0
      6927 MEMB     52       POPC     C213     CTL2    -0.180000       12.0110           0
      6928 MEMB     52       POPC     H13R     HAL2     0.900000E-01   1.00800           0
      6929 MEMB     52       POPC     H13S     HAL2     0.900000E-01   1.00800           0
      6930 MEMB     52       POPC     C214     CTL2    -0.180000       12.0110           0
      6931 MEMB     52       POPC     H14R     HAL2     0.900000E-01   1.00800           0
      6932 MEMB     52       POPC     H14S     HAL2     0.900000E-01   1.00800           0
      6933 MEMB     52       POPC     C215     CTL2    -0.180000       12.0110           0
      6934 MEMB     52       POPC     H15R     HAL2     0.900000E-01   1.00800           0
      6935 MEMB     52       POPC     H15S     HAL2     0.900000E-01   1.00800           0
      6936 MEMB     52       POPC     C216     CTL2    -0.180000       12.0110           0
      6937 MEMB     52       POPC     H16R     HAL2     0.900000E-01   1.00800           0
      6938 MEMB     52       POPC     H16S     HAL2     0.900000E-01   1.00800           0
      6939 MEMB     52       POPC     C217     CTL2    -0.180000       12.0110           0
      6940 MEMB     52       POPC     H17R     HAL2     0.900000E-01   1.00800           0
      6941 MEMB     52       POPC     H17S     HAL2     0.900000E-01   1.00800           0
      6942 MEMB     52       POPC     C218     CTL3    -0.270000       12.0110           0
      6943 MEMB     52       POPC     H18R     HAL3     0.900000E-01   1.00800           0
      6944 MEMB     52       POPC     H18S     HAL3     0.900000E-01   1.00800           0
      6945 MEMB     52       POPC     H18T     HAL3     0.900000E-01   1.00800           0
      6946 MEMB     52       POPC     C33      CTL2    -0.180000       12.0110           0
      6947 MEMB     52       POPC     H3X      HAL2     0.900000E-01   1.00800           0
      6948 MEMB     52       POPC     H3Y      HAL2     0.900000E-01   1.00800           0
      6949 MEMB     52       POPC     C34      CTL2    -0.180000       12.0110           0
      6950 MEMB     52       POPC     H4X      HAL2     0.900000E-01   1.00800           0
      6951 MEMB     52       POPC     H4Y      HAL2     0.900000E-01   1.00800           0
      6952 MEMB     52       POPC     C35      CTL2    -0.180000       12.0110           0
      6953 MEMB     52       POPC     H5X      HAL2     0.900000E-01   1.00800           0
      6954 MEMB     52       POPC     H5Y      HAL2     0.900000E-01   1.00800           0
      6955 MEMB     52       POPC     C36      CTL2    -0.180000       12.0110           0
      6956 MEMB     52       POPC     H6X      HAL2     0.900000E-01   1.00800           0
      6957 MEMB     52       POPC     H6Y      HAL2     0.900000E-01   1.00800           0
      6958 MEMB     52       POPC     C37      CTL2    -0.180000       12.0110           0
      6959 MEMB     52       POPC     H7X      HAL2     0.900000E-01   1.00800           0
      6960 MEMB     52       POPC     H7Y      HAL2     0.900000E-01   1.00800           0
      6961 MEMB     52       POPC     C38      CTL2    -0.180000       12.0110           0
      6962 MEMB     52       POPC     H8X      HAL2     0.900000E-01   1.00800           0
      6963 MEMB     52       POPC     H8Y      HAL2     0.900000E-01   1.00800           0
      6964 MEMB     52       POPC     C39      CTL2    -0.180000       12.0110           0
      6965 MEMB     52       POPC     H9X      HAL2     0.900000E-01   1.00800           0
      6966 MEMB     52       POPC     H9Y      HAL2     0.900000E-01   1.00800           0
      6967 MEMB     52       POPC     C310     CTL2    -0.180000       12.0110           0
      6968 MEMB     52       POPC     H10X     HAL2     0.900000E-01   1.00800           0
      6969 MEMB     52       POPC     H10Y     HAL2     0.900000E-01   1.00800           0
      6970 MEMB     52       POPC     C311     CTL2    -0.180000       12.0110           0
      6971 MEMB     52       POPC     H11X     HAL2     0.900000E-01   1.00800           0
      6972 MEMB     52       POPC     H11Y     HAL2     0.900000E-01   1.00800           0
      6973 MEMB     52       POPC     C312     CTL2    -0.180000       12.0110           0
      6974 MEMB     52       POPC     H12X     HAL2     0.900000E-01   1.00800           0
      6975 MEMB     52       POPC     H12Y     HAL2     0.900000E-01   1.00800           0
      6976 MEMB     52       POPC     C313     CTL2    -0.180000       12.0110           0
      6977 MEMB     52       POPC     H13X     HAL2     0.900000E-01   1.00800           0
      6978 MEMB     52       POPC     H13Y     HAL2     0.900000E-01   1.00800           0
      6979 MEMB     52       POPC     C314     CTL2    -0.180000       12.0110           0
      6980 MEMB     52       POPC     H14X     HAL2     0.900000E-01   1.00800           0
      6981 MEMB     52       POPC     H14Y     HAL2     0.900000E-01   1.00800           0
      6982 MEMB     52       POPC     C315     CTL2    -0.180000       12.0110           0
      6983 MEMB     52       POPC     H15X     HAL2     0.900000E-01   1.00800           0
      6984 MEMB     52       POPC     H15Y     HAL2     0.900000E-01   1.00800           0
      6985 MEMB     52       POPC     C316     CTL3    -0.270000       12.0110           0
      6986 MEMB     52       POPC     H16X     HAL3     0.900000E-01   1.00800           0
      6987 MEMB     52       POPC     H16Y     HAL3     0.900000E-01   1.00800           0
      6988 MEMB     52       POPC     H16Z     HAL3     0.900000E-01   1.00800           0
      6989 MEMB     53       POPS     N        NH3L    -0.300000       14.0070           0
      6990 MEMB     53       POPS     HN1      HCL      0.330000       1.00800           0
      6991 MEMB     53       POPS     HN2      HCL      0.330000       1.00800           0
      6992 MEMB     53       POPS     HN3      HCL      0.330000       1.00800           0
      6993 MEMB     53       POPS     C12      CTL1     0.210000       12.0110           0
      6994 MEMB     53       POPS     H12A     HBL      0.100000       1.00800           0
      6995 MEMB     53       POPS     C13      CCL      0.340000       12.0110           0
      6996 MEMB     53       POPS     O13A     OCL     -0.670000       15.9994           0
      6997 MEMB     53       POPS     O13B     OCL     -0.670000       15.9994           0
      6998 MEMB     53       POPS     C11      CTL2    -0.800000E-01   12.0110           0
      6999 MEMB     53       POPS     H11A     HAL2     0.900000E-01   1.00800           0
      7000 MEMB     53       POPS     H11B     HAL2     0.900000E-01   1.00800           0
      7001 MEMB     53       POPS     P        PL        1.50000       30.9740           0
      7002 MEMB     53       POPS     O13      O2L     -0.780000       15.9994           0
      7003 MEMB     53       POPS     O14      O2L     -0.780000       15.9994           0
      7004 MEMB     53       POPS     O12      OSLP    -0.570000       15.9994           0
      7005 MEMB     53       POPS     O11      OSLP    -0.570000       15.9994           0
      7006 MEMB     53       POPS     C1       CTL2    -0.800000E-01   12.0110           0
      7007 MEMB     53       POPS     HA       HAL2     0.900000E-01   1.00800           0
      7008 MEMB     53       POPS     HB       HAL2     0.900000E-01   1.00800           0
      7009 MEMB     53       POPS     C2       CTL1     0.170000       12.0110           0
      7010 MEMB     53       POPS     HS       HAL1     0.900000E-01   1.00800           0
      7011 MEMB     53       POPS     O21      OSL     -0.490000       15.9994           0
      7012 MEMB     53       POPS     C21      CL       0.900000       12.0110           0
      7013 MEMB     53       POPS     O22      OBL     -0.630000       15.9994           0
      7014 MEMB     53       POPS     C22      CTL2    -0.220000       12.0110           0
      7015 MEMB     53       POPS     H2R      HAL2     0.900000E-01   1.00800           0
      7016 MEMB     53       POPS     H2S      HAL2     0.900000E-01   1.00800           0
      7017 MEMB     53       POPS     C3       CTL2     0.800000E-01   12.0110           0
      7018 MEMB     53       POPS     HX       HAL2     0.900000E-01   1.00800           0
      7019 MEMB     53       POPS     HY       HAL2     0.900000E-01   1.00800           0
      7020 MEMB     53       POPS     O31      OSL     -0.490000       15.9994           0
      7021 MEMB     53       POPS     C31      CL       0.900000       12.0110           0
      7022 MEMB     53       POPS     O32      OBL     -0.630000       15.9994           0
      7023 MEMB     53       POPS     C32      CTL2    -0.220000       12.0110           0
      7024 MEMB     53       POPS     H2X      HAL2     0.900000E-01   1.00800           0
      7025 MEMB     53       POPS     H2Y      HAL2     0.900000E-01   1.00800           0
      7026 MEMB     53       POPS     C23      CTL2    -0.180000       12.0110           0
      7027 MEMB     53       POPS     H3R      HAL2     0.900000E-01   1.00800           0
      7028 MEMB     53       POPS     H3S      HAL2     0.900000E-01   1.00800           0
      7029 MEMB     53       POPS     C24      CTL2    -0.180000       12.0110           0
      7030 MEMB     53       POPS     H4R      HAL2     0.900000E-01   1.00800           0
      7031 MEMB     53       POPS     H4S      HAL2     0.900000E-01   1.00800           0
      7032 MEMB     53       POPS     C25      CTL2    -0.180000       12.0110           0
      7033 MEMB     53       POPS     H5R      HAL2     0.900000E-01   1.00800           0
      7034 MEMB     53       POPS     H5S      HAL2     0.900000E-01   1.00800           0
      7035 MEMB     53       POPS     C26      CTL2    -0.180000       12.0110           0
      7036 MEMB     53       POPS     H6R      HAL2     0.900000E-01   1.00800           0
      7037 MEMB     53       POPS     H6S      HAL2     0.900000E-01   1.00800           0
      7038 MEMB     53       POPS     C27      CTL2    -0.180000       12.0110           0
      7039 MEMB     53       POPS     H7R      HAL2     0.900000E-01   1.00800           0
      7040 MEMB     53       POPS     H7S      HAL2     0.900000E-01   1.00800           0
      7041 MEMB     53       POPS     C28      CTL2    -0.180000       12.0110           0
      7042 MEMB     53       POPS     H8R      HAL2     0.900000E-01   1.00800           0
      7043 MEMB     53       POPS     H8S      HAL2     0.900000E-01   1.00800           0
      7044 MEMB     53       POPS     C29      CEL1    -0.150000       12.0110           0
      7045 MEMB     53       POPS     H91      HEL1     0.150000       1.00800           0
      7046 MEMB     53       POPS     C210     CEL1    -0.150000       12.0110           0
      7047 MEMB     53       POPS     H101     HEL1     0.150000       1.00800           0
      7048 MEMB     53       POPS     C211     CTL2    -0.180000       12.0110           0
      7049 MEMB     53       POPS     H11R     HAL2     0.900000E-01   1.00800           0
      7050 MEMB     53       POPS     H11S     HAL2     0.900000E-01   1.00800           0
      7051 MEMB     53       POPS     C212     CTL2    -0.180000       12.0110           0
      7052 MEMB     53       POPS     H12R     HAL2     0.900000E-01   1.00800           0
      7053 MEMB     53       POPS     H12S     HAL2     0.900000E-01   1.00800           0
      7054 MEMB     53       POPS     C213     CTL2    -0.180000       12.0110           0
      7055 MEMB     53       POPS     H13R     HAL2     0.900000E-01   1.00800           0
      7056 MEMB     53       POPS     H13S     HAL2     0.900000E-01   1.00800           0
      7057 MEMB     53       POPS     C214     CTL2    -0.180000       12.0110           0
      7058 MEMB     53       POPS     H14R     HAL2     0.900000E-01   1.00800           0
      7059 MEMB     53       POPS     H14S     HAL2     0.900000E-01   1.00800           0
      7060 MEMB     53       POPS     C215     CTL2    -0.180000       12.0110           0
      7061 MEMB     53       POPS     H15R     HAL2     0.900000E-01   1.00800           0
      7062 MEMB     53       POPS     H15S     HAL2     0.900000E-01   1.00800           0
      7063 MEMB     53       POPS     C216     CTL2    -0.180000       12.0110           0
      7064 MEMB     53       POPS     H16R     HAL2     0.900000E-01   1.00800           0
      7065 MEMB     53       POPS     H16S     HAL2     0.900000E-01   1.00800           0
      7066 MEMB     53       POPS     C217     CTL2    -0.180000       12.0110           0
      7067 MEMB     53       POPS     H17R     HAL2     0.900000E-01   1.00800           0
      7068 MEMB     53       POPS     H17S     HAL2     0.900000E-01   1.00800           0
      7069 MEMB     53       POPS     C218     CTL3    -0.270000       12.0110           0
      7070 MEMB     53       POPS     H18R     HAL3     0.900000E-01   1.00800           0
      7071 MEMB     53       POPS     H18S     HAL3     0.900000E-01   1.00800           0
      7072 MEMB     53       POPS     H18T     HAL3     0.900000E-01   1.00800           0
      7073 MEMB     53       POPS     C33      CTL2    -0.180000       12.0110           0
      7074 MEMB     53       POPS     H3X      HAL2     0.900000E-01   1.00800           0
      7075 MEMB     53       POPS     H3Y      HAL2     0.900000E-01   1.00800           0
      7076 MEMB     53       POPS     C34      CTL2    -0.180000       12.0110           0
      7077 MEMB     53       POPS     H4X      HAL2     0.900000E-01   1.00800           0
      7078 MEMB     53       POPS     H4Y      HAL2     0.900000E-01   1.00800           0
      7079 MEMB     53       POPS     C35      CTL2    -0.180000       12.0110           0
      7080 MEMB     53       POPS     H5X      HAL2     0.900000E-01   1.00800           0
      7081 MEMB     53       POPS     H5Y      HAL2     0.900000E-01   1.00800           0
      7082 MEMB     53       POPS     C36      CTL2    -0.180000       12.0110           0
      7083 MEMB     53       POPS     H6X      HAL2     0.900000E-01   1.00800           0
      7084 MEMB     53       POPS     H6Y      HAL2     0.900000E-01   1.00800           0
      7085 MEMB     53       POPS     C37      CTL2    -0.180000       12.0110           0
      7086 MEMB     53       POPS     H7X      HAL2     0.900000E-01   1.00800           0
      7087 MEMB     53       POPS     H7Y      HAL2     0.900000E-01   1.00800           0
      7088 MEMB     53       POPS     C38      CTL2    -0.180000       12.0110           0
      7089 MEMB     53       POPS     H8X      HAL2     0.900000E-01   1.00800           0
      7090 MEMB     53       POPS     H8Y      HAL2     0.900000E-01   1.00800           0
      7091 MEMB     53       POPS     C39      CTL2    -0.180000       12.0110           0
      7092 MEMB     53       POPS     H9X      HAL2     0.900000E-01   1.00800           0
      7093 MEMB     53       POPS     H9Y      HAL2     0.900000E-01   1.00800           0
      7094 MEMB     53       POPS     C310     CTL2    -0.180000       12.0110           0
      7095 MEMB     53       POPS     H10X     HAL2     0.900000E-01   1.00800           0
      7096 MEMB     53       POPS     H10Y     HAL2     0.900000E-01   1.00800           0
      7097 MEMB     53       POPS     C311     CTL2    -0.180000       12.0110           0
      7098 MEMB     53       POPS     H11X     HAL2     0.900000E-01   1.00800           0
      7099 MEMB     53       POPS     H11Y     HAL2     0.900000E-01   1.00800           0
      7100 MEMB     53       POPS     C312     CTL2    -0.180000       12.0110           0
      7101 MEMB     53       POPS     H12X     HAL2     0.900000E-01   1.00800           0
      7102 MEMB     53       POPS     H12Y     HAL2     0.900000E-01   1.00800           0
      7103 MEMB     53       POPS     C313     CTL2    -0.180000       12.0110           0
      7104 MEMB     53       POPS     H13X     HAL2     0.900000E-01   1.00800           0
      7105 MEMB     53       POPS     H13Y     HAL2     0.900000E-01   1.00800           0
      7106 MEMB     53       POPS     C314     CTL2    -0.180000       12.0110           0
      7107 MEMB     53       POPS     H14X     HAL2     0.900000E-01   1.00800           0
      7108 MEMB     53       POPS     H14Y     HAL2     0.900000E-01   1.00800           0
      7109 MEMB     53       POPS     C315     CTL2    -0.180000       12.0110           0
      7110 MEMB     53       POPS     H15X     HAL2     0.900000E-01   1.00800           0
      7111 MEMB     53       POPS     H15Y     HAL2     0.900000E-01   1.00800           0
      7112 MEMB     53       POPS     C316     CTL3    -0.270000       12.0110           0
      7113 MEMB     53       POPS     H16X     HAL3     0.900000E-01   1.00800           0
      7114 MEMB     53       POPS     H16Y     HAL3     0.900000E-01   1.00800           0
      7115 MEMB     53       POPS     H16Z     HAL3     0.900000E-01   1.00800           0
      7116 MEMB     54       POPC     N        NTL     -0.600000       14.0070           0
      7117 MEMB     54       POPC     C12      CTL2    -0.100000       12.0110           0
      7118 MEMB     54       POPC     H12A     HL       0.250000       1.00800           0
      7119 MEMB     54       POPC     H12B     HL       0.250000       1.00800           0
      7120 MEMB     54       POPC     C13      CTL5    -0.350000       12.0110           0
      7121 MEMB     54       POPC     H13A     HL       0.250000       1.00800           0
      7122 MEMB     54       POPC     H13B     HL       0.250000       1.00800           0
      7123 MEMB     54       POPC     H13C     HL       0.250000       1.00800           0
      7124 MEMB     54       POPC     C14      CTL5    -0.350000       12.0110           0
      7125 MEMB     54       POPC     H14A     HL       0.250000       1.00800           0
      7126 MEMB     54       POPC     H14B     HL       0.250000       1.00800           0
      7127 MEMB     54       POPC     H14C     HL       0.250000       1.00800           0
      7128 MEMB     54       POPC     C15      CTL5    -0.350000       12.0110           0
      7129 MEMB     54       POPC     H15A     HL       0.250000       1.00800           0
      7130 MEMB     54       POPC     H15B     HL       0.250000       1.00800           0
      7131 MEMB     54       POPC     H15C     HL       0.250000       1.00800           0
      7132 MEMB     54       POPC     C11      CTL2    -0.800000E-01   12.0110           0
      7133 MEMB     54       POPC     H11A     HAL2     0.900000E-01   1.00800           0
      7134 MEMB     54       POPC     H11B     HAL2     0.900000E-01   1.00800           0
      7135 MEMB     54       POPC     P        PL        1.50000       30.9740           0
      7136 MEMB     54       POPC     O13      O2L     -0.780000       15.9994           0
      7137 MEMB     54       POPC     O14      O2L     -0.780000       15.9994           0
      7138 MEMB     54       POPC     O12      OSLP    -0.570000       15.9994           0
      7139 MEMB     54       POPC     O11      OSLP    -0.570000       15.9994           0
      7140 MEMB     54       POPC     C1       CTL2    -0.800000E-01   12.0110           0
      7141 MEMB     54       POPC     HA       HAL2     0.900000E-01   1.00800           0
      7142 MEMB     54       POPC     HB       HAL2     0.900000E-01   1.00800           0
      7143 MEMB     54       POPC     C2       CTL1     0.170000       12.0110           0
      7144 MEMB     54       POPC     HS       HAL1     0.900000E-01   1.00800           0
      7145 MEMB     54       POPC     O21      OSL     -0.490000       15.9994           0
      7146 MEMB     54       POPC     C21      CL       0.900000       12.0110           0
      7147 MEMB     54       POPC     O22      OBL     -0.630000       15.9994           0
      7148 MEMB     54       POPC     C22      CTL2    -0.220000       12.0110           0
      7149 MEMB     54       POPC     H2R      HAL2     0.900000E-01   1.00800           0
      7150 MEMB     54       POPC     H2S      HAL2     0.900000E-01   1.00800           0
      7151 MEMB     54       POPC     C3       CTL2     0.800000E-01   12.0110           0
      7152 MEMB     54       POPC     HX       HAL2     0.900000E-01   1.00800           0
      7153 MEMB     54       POPC     HY       HAL2     0.900000E-01   1.00800           0
      7154 MEMB     54       POPC     O31      OSL     -0.490000       15.9994           0
      7155 MEMB     54       POPC     C31      CL       0.900000       12.0110           0
      7156 MEMB     54       POPC     O32      OBL     -0.630000       15.9994           0
      7157 MEMB     54       POPC     C32      CTL2    -0.220000       12.0110           0
      7158 MEMB     54       POPC     H2X      HAL2     0.900000E-01   1.00800           0
      7159 MEMB     54       POPC     H2Y      HAL2     0.900000E-01   1.00800           0
      7160 MEMB     54       POPC     C23      CTL2    -0.180000       12.0110           0
      7161 MEMB     54       POPC     H3R      HAL2     0.900000E-01   1.00800           0
      7162 MEMB     54       POPC     H3S      HAL2     0.900000E-01   1.00800           0
      7163 MEMB     54       POPC     C24      CTL2    -0.180000       12.0110           0
      7164 MEMB     54       POPC     H4R      HAL2     0.900000E-01   1.00800           0
      7165 MEMB     54       POPC     H4S      HAL2     0.900000E-01   1.00800           0
      7166 MEMB     54       POPC     C25      CTL2    -0.180000       12.0110           0
      7167 MEMB     54       POPC     H5R      HAL2     0.900000E-01   1.00800           0
      7168 MEMB     54       POPC     H5S      HAL2     0.900000E-01   1.00800           0
      7169 MEMB     54       POPC     C26      CTL2    -0.180000       12.0110           0
      7170 MEMB     54       POPC     H6R      HAL2     0.900000E-01   1.00800           0
      7171 MEMB     54       POPC     H6S      HAL2     0.900000E-01   1.00800           0
      7172 MEMB     54       POPC     C27      CTL2    -0.180000       12.0110           0
      7173 MEMB     54       POPC     H7R      HAL2     0.900000E-01   1.00800           0
      7174 MEMB     54       POPC     H7S      HAL2     0.900000E-01   1.00800           0
      7175 MEMB     54       POPC     C28      CTL2    -0.180000       12.0110           0
      7176 MEMB     54       POPC     H8R      HAL2     0.900000E-01   1.00800           0
      7177 MEMB     54       POPC     H8S      HAL2     0.900000E-01   1.00800           0
      7178 MEMB     54       POPC     C29      CEL1    -0.150000       12.0110           0
      7179 MEMB     54       POPC     H91      HEL1     0.150000       1.00800           0
      7180 MEMB     54       POPC     C210     CEL1    -0.150000       12.0110           0
      7181 MEMB     54       POPC     H101     HEL1     0.150000       1.00800           0
      7182 MEMB     54       POPC     C211     CTL2    -0.180000       12.0110           0
      7183 MEMB     54       POPC     H11R     HAL2     0.900000E-01   1.00800           0
      7184 MEMB     54       POPC     H11S     HAL2     0.900000E-01   1.00800           0
      7185 MEMB     54       POPC     C212     CTL2    -0.180000       12.0110           0
      7186 MEMB     54       POPC     H12R     HAL2     0.900000E-01   1.00800           0
      7187 MEMB     54       POPC     H12S     HAL2     0.900000E-01   1.00800           0
      7188 MEMB     54       POPC     C213     CTL2    -0.180000       12.0110           0
      7189 MEMB     54       POPC     H13R     HAL2     0.900000E-01   1.00800           0
      7190 MEMB     54       POPC     H13S     HAL2     0.900000E-01   1.00800           0
      7191 MEMB     54       POPC     C214     CTL2    -0.180000       12.0110           0
      7192 MEMB     54       POPC     H14R     HAL2     0.900000E-01   1.00800           0
      7193 MEMB     54       POPC     H14S     HAL2     0.900000E-01   1.00800           0
      7194 MEMB     54       POPC     C215     CTL2    -0.180000       12.0110           0
      7195 MEMB     54       POPC     H15R     HAL2     0.900000E-01   1.00800           0
      7196 MEMB     54       POPC     H15S     HAL2     0.900000E-01   1.00800           0
      7197 MEMB     54       POPC     C216     CTL2    -0.180000       12.0110           0
      7198 MEMB     54       POPC     H16R     HAL2     0.900000E-01   1.00800           0
      7199 MEMB     54       POPC     H16S     HAL2     0.900000E-01   1.00800           0
      7200 MEMB     54       POPC     C217     CTL2    -0.180000       12.0110           0
      7201 MEMB     54       POPC     H17R     HAL2     0.900000E-01   1.00800           0
      7202 MEMB     54       POPC     H17S     HAL2     0.900000E-01   1.00800           0
      7203 MEMB     54       POPC     C218     CTL3    -0.270000       12.0110           0
      7204 MEMB     54       POPC     H18R     HAL3     0.900000E-01   1.00800           0
      7205 MEMB     54       POPC     H18S     HAL3     0.900000E-01   1.00800           0
      7206 MEMB     54       POPC     H18T     HAL3     0.900000E-01   1.00800           0
      7207 MEMB     54       POPC     C33      CTL2    -0.180000       12.0110           0
      7208 MEMB     54       POPC     H3X      HAL2     0.900000E-01   1.00800           0
      7209 MEMB     54       POPC     H3Y      HAL2     0.900000E-01   1.00800           0
      7210 MEMB     54       POPC     C34      CTL2    -0.180000       12.0110           0
      7211 MEMB     54       POPC     H4X      HAL2     0.900000E-01   1.00800           0
      7212 MEMB     54       POPC     H4Y      HAL2     0.900000E-01   1.00800           0
      7213 MEMB     54       POPC     C35      CTL2    -0.180000       12.0110           0
      7214 MEMB     54       POPC     H5X      HAL2     0.900000E-01   1.00800           0
      7215 MEMB     54       POPC     H5Y      HAL2     0.900000E-01   1.00800           0
      7216 MEMB     54       POPC     C36      CTL2    -0.180000       12.0110           0
      7217 MEMB     54       POPC     H6X      HAL2     0.900000E-01   1.00800           0
      7218 MEMB     54       POPC     H6Y      HAL2     0.900000E-01   1.00800           0
      7219 MEMB     54       POPC     C37      CTL2    -0.180000       12.0110           0
      7220 MEMB     54       POPC     H7X      HAL2     0.900000E-01   1.00800           0
      7221 MEMB     54       POPC     H7Y      HAL2     0.900000E-01   1.00800           0
      7222 MEMB     54       POPC     C38      CTL2    -0.180000       12.0110           0
      7223 MEMB     54       POPC     H8X      HAL2     0.900000E-01   1.00800           0
      7224 MEMB     54       POPC     H8Y      HAL2     0.900000E-01   1.00800           0
      7225 MEMB     54       POPC     C39      CTL2    -0.180000       12.0110           0
      7226 MEMB     54       POPC     H9X      HAL2     0.900000E-01   1.00800           0
      7227 MEMB     54       POPC     H9Y      HAL2     0.900000E-01   1.00800           0
      7228 MEMB     54       POPC     C310     CTL2    -0.180000       12.0110           0
      7229 MEMB     54       POPC     H10X     HAL2     0.900000E-01   1.00800           0
      7230 MEMB     54       POPC     H10Y     HAL2     0.900000E-01   1.00800           0
      7231 MEMB     54       POPC     C311     CTL2    -0.180000       12.0110           0
      7232 MEMB     54       POPC     H11X     HAL2     0.900000E-01   1.00800           0
      7233 MEMB     54       POPC     H11Y     HAL2     0.900000E-01   1.00800           0
      7234 MEMB     54       POPC     C312     CTL2    -0.180000       12.0110           0
      7235 MEMB     54       POPC     H12X     HAL2     0.900000E-01   1.00800           0
      7236 MEMB     54       POPC     H12Y     HAL2     0.900000E-01   1.00800           0
      7237 MEMB     54       POPC     C313     CTL2    -0.180000       12.0110           0
      7238 MEMB     54       POPC     H13X     HAL2     0.900000E-01   1.00800           0
      7239 MEMB     54       POPC     H13Y     HAL2     0.900000E-01   1.00800           0
      7240 MEMB     54       POPC     C314     CTL2    -0.180000       12.0110           0
      7241 MEMB     54       POPC     H14X     HAL2     0.900000E-01   1.00800           0
      7242 MEMB     54       POPC     H14Y     HAL2     0.900000E-01   1.00800           0
      7243 MEMB     54       POPC     C315     CTL2    -0.180000       12.0110           0
      7244 MEMB     54       POPC     H15X     HAL2     0.900000E-01   1.00800           0
      7245 MEMB     54       POPC     H15Y     HAL2     0.900000E-01   1.00800           0
      7246 MEMB     54       POPC     C316     CTL3    -0.270000       12.0110           0
      7247 MEMB     54       POPC     H16X     HAL3     0.900000E-01   1.00800           0
      7248 MEMB     54       POPC     H16Y     HAL3     0.900000E-01   1.00800           0
      7249 MEMB     54       POPC     H16Z     HAL3     0.900000E-01   1.00800           0
      7250 MEMB     55       POPC     N        NTL     -0.600000       14.0070           0
      7251 MEMB     55       POPC     C12      CTL2    -0.100000       12.0110           0
      7252 MEMB     55       POPC     H12A     HL       0.250000       1.00800           0
      7253 MEMB     55       POPC     H12B     HL       0.250000       1.00800           0
      7254 MEMB     55       POPC     C13      CTL5    -0.350000       12.0110           0
      7255 MEMB     55       POPC     H13A     HL       0.250000       1.00800           0
      7256 MEMB     55       POPC     H13B     HL       0.250000       1.00800           0
      7257 MEMB     55       POPC     H13C     HL       0.250000       1.00800           0
      7258 MEMB     55       POPC     C14      CTL5    -0.350000       12.0110           0
      7259 MEMB     55       POPC     H14A     HL       0.250000       1.00800           0
      7260 MEMB     55       POPC     H14B     HL       0.250000       1.00800           0
      7261 MEMB     55       POPC     H14C     HL       0.250000       1.00800           0
      7262 MEMB     55       POPC     C15      CTL5    -0.350000       12.0110           0
      7263 MEMB     55       POPC     H15A     HL       0.250000       1.00800           0
      7264 MEMB     55       POPC     H15B     HL       0.250000       1.00800           0
      7265 MEMB     55       POPC     H15C     HL       0.250000       1.00800           0
      7266 MEMB     55       POPC     C11      CTL2    -0.800000E-01   12.0110           0
      7267 MEMB     55       POPC     H11A     HAL2     0.900000E-01   1.00800           0
      7268 MEMB     55       POPC     H11B     HAL2     0.900000E-01   1.00800           0
      7269 MEMB     55       POPC     P        PL        1.50000       30.9740           0
      7270 MEMB     55       POPC     O13      O2L     -0.780000       15.9994           0
      7271 MEMB     55       POPC     O14      O2L     -0.780000       15.9994           0
      7272 MEMB     55       POPC     O12      OSLP    -0.570000       15.9994           0
      7273 MEMB     55       POPC     O11      OSLP    -0.570000       15.9994           0
      7274 MEMB     55       POPC     C1       CTL2    -0.800000E-01   12.0110           0
      7275 MEMB     55       POPC     HA       HAL2     0.900000E-01   1.00800           0
      7276 MEMB     55       POPC     HB       HAL2     0.900000E-01   1.00800           0
      7277 MEMB     55       POPC     C2       CTL1     0.170000       12.0110           0
      7278 MEMB     55       POPC     HS       HAL1     0.900000E-01   1.00800           0
      7279 MEMB     55       POPC     O21      OSL     -0.490000       15.9994           0
      7280 MEMB     55       POPC     C21      CL       0.900000       12.0110           0
      7281 MEMB     55       POPC     O22      OBL     -0.630000       15.9994           0
      7282 MEMB     55       POPC     C22      CTL2    -0.220000       12.0110           0
      7283 MEMB     55       POPC     H2R      HAL2     0.900000E-01   1.00800           0
      7284 MEMB     55       POPC     H2S      HAL2     0.900000E-01   1.00800           0
      7285 MEMB     55       POPC     C3       CTL2     0.800000E-01   12.0110           0
      7286 MEMB     55       POPC     HX       HAL2     0.900000E-01   1.00800           0
      7287 MEMB     55       POPC     HY       HAL2     0.900000E-01   1.00800           0
      7288 MEMB     55       POPC     O31      OSL     -0.490000       15.9994           0
      7289 MEMB     55       POPC     C31      CL       0.900000       12.0110           0
      7290 MEMB     55       POPC     O32      OBL     -0.630000       15.9994           0
      7291 MEMB     55       POPC     C32      CTL2    -0.220000       12.0110           0
      7292 MEMB     55       POPC     H2X      HAL2     0.900000E-01   1.00800           0
      7293 MEMB     55       POPC     H2Y      HAL2     0.900000E-01   1.00800           0
      7294 MEMB     55       POPC     C23      CTL2    -0.180000       12.0110           0
      7295 MEMB     55       POPC     H3R      HAL2     0.900000E-01   1.00800           0
      7296 MEMB     55       POPC     H3S      HAL2     0.900000E-01   1.00800           0
      7297 MEMB     55       POPC     C24      CTL2    -0.180000       12.0110           0
      7298 MEMB     55       POPC     H4R      HAL2     0.900000E-01   1.00800           0
      7299 MEMB     55       POPC     H4S      HAL2     0.900000E-01   1.00800           0
      7300 MEMB     55       POPC     C25      CTL2    -0.180000       12.0110           0
      7301 MEMB     55       POPC     H5R      HAL2     0.900000E-01   1.00800           0
      7302 MEMB     55       POPC     H5S      HAL2     0.900000E-01   1.00800           0
      7303 MEMB     55       POPC     C26      CTL2    -0.180000       12.0110           0
      7304 MEMB     55       POPC     H6R      HAL2     0.900000E-01   1.00800           0
      7305 MEMB     55       POPC     H6S      HAL2     0.900000E-01   1.00800           0
      7306 MEMB     55       POPC     C27      CTL2    -0.180000       12.0110           0
      7307 MEMB     55       POPC     H7R      HAL2     0.900000E-01   1.00800           0
      7308 MEMB     55       POPC     H7S      HAL2     0.900000E-01   1.00800           0
      7309 MEMB     55       POPC     C28      CTL2    -0.180000       12.0110           0
      7310 MEMB     55       POPC     H8R      HAL2     0.900000E-01   1.00800           0
      7311 MEMB     55       POPC     H8S      HAL2     0.900000E-01   1.00800           0
      7312 MEMB     55       POPC     C29      CEL1    -0.150000       12.0110           0
      7313 MEMB     55       POPC     H91      HEL1     0.150000       1.00800           0
      7314 MEMB     55       POPC     C210     CEL1    -0.150000       12.0110           0
      7315 MEMB     55       POPC     H101     HEL1     0.150000       1.00800           0
      7316 MEMB     55       POPC     C211     CTL2    -0.180000       12.0110           0
      7317 MEMB     55       POPC     H11R     HAL2     0.900000E-01   1.00800           0
      7318 MEMB     55       POPC     H11S     HAL2     0.900000E-01   1.00800           0
      7319 MEMB     55       POPC     C212     CTL2    -0.180000       12.0110           0
      7320 MEMB     55       POPC     H12R     HAL2     0.900000E-01   1.00800           0
      7321 MEMB     55       POPC     H12S     HAL2     0.900000E-01   1.00800           0
      7322 MEMB     55       POPC     C213     CTL2    -0.180000       12.0110           0
      7323 MEMB     55       POPC     H13R     HAL2     0.900000E-01   1.00800           0
      7324 MEMB     55       POPC     H13S     HAL2     0.900000E-01   1.00800           0
      7325 MEMB     55       POPC     C214     CTL2    -0.180000       12.0110           0
      7326 MEMB     55       POPC     H14R     HAL2     0.900000E-01   1.00800           0
      7327 MEMB     55       POPC     H14S     HAL2     0.900000E-01   1.00800           0
      7328 MEMB     55       POPC     C215     CTL2    -0.180000       12.0110           0
      7329 MEMB     55       POPC     H15R     HAL2     0.900000E-01   1.00800           0
      7330 MEMB     55       POPC     H15S     HAL2     0.900000E-01   1.00800           0
      7331 MEMB     55       POPC     C216     CTL2    -0.180000       12.0110           0
      7332 MEMB     55       POPC     H16R     HAL2     0.900000E-01   1.00800           0
      7333 MEMB     55       POPC     H16S     HAL2     0.900000E-01   1.00800           0
      7334 MEMB     55       POPC     C217     CTL2    -0.180000       12.0110           0
      7335 MEMB     55       POPC     H17R     HAL2     0.900000E-01   1.00800           0
      7336 MEMB     55       POPC     H17S     HAL2     0.900000E-01   1.00800           0
      7337 MEMB     55       POPC     C218     CTL3    -0.270000       12.0110           0
      7338 MEMB     55       POPC     H18R     HAL3     0.900000E-01   1.00800           0
      7339 MEMB     55       POPC     H18S     HAL3     0.900000E-01   1.00800           0
      7340 MEMB     55       POPC     H18T     HAL3     0.900000E-01   1.00800           0
      7341 MEMB     55       POPC     C33      CTL2    -0.180000       12.0110           0
      7342 MEMB     55       POPC     H3X      HAL2     0.900000E-01   1.00800           0
      7343 MEMB     55       POPC     H3Y      HAL2     0.900000E-01   1.00800           0
      7344 MEMB     55       POPC     C34      CTL2    -0.180000       12.0110           0
      7345 MEMB     55       POPC     H4X      HAL2     0.900000E-01   1.00800           0
      7346 MEMB     55       POPC     H4Y      HAL2     0.900000E-01   1.00800           0
      7347 MEMB     55       POPC     C35      CTL2    -0.180000       12.0110           0
      7348 MEMB     55       POPC     H5X      HAL2     0.900000E-01   1.00800           0
      7349 MEMB     55       POPC     H5Y      HAL2     0.900000E-01   1.00800           0
      7350 MEMB     55       POPC     C36      CTL2    -0.180000       12.0110           0
      7351 MEMB     55       POPC     H6X      HAL2     0.900000E-01   1.00800           0
      7352 MEMB     55       POPC     H6Y      HAL2     0.900000E-01   1.00800           0
      7353 MEMB     55       POPC     C37      CTL2    -0.180000       12.0110           0
      7354 MEMB     55       POPC     H7X      HAL2     0.900000E-01   1.00800           0
      7355 MEMB     55       POPC     H7Y      HAL2     0.900000E-01   1.00800           0
      7356 MEMB     55       POPC     C38      CTL2    -0.180000       12.0110           0
      7357 MEMB     55       POPC     H8X      HAL2     0.900000E-01   1.00800           0
      7358 MEMB     55       POPC     H8Y      HAL2     0.900000E-01   1.00800           0
      7359 MEMB     55       POPC     C39      CTL2    -0.180000       12.0110           0
      7360 MEMB     55       POPC     H9X      HAL2     0.900000E-01   1.00800           0
      7361 MEMB     55       POPC     H9Y      HAL2     0.900000E-01   1.00800           0
      7362 MEMB     55       POPC     C310     CTL2    -0.180000       12.0110           0
      7363 MEMB     55       POPC     H10X     HAL2     0.900000E-01   1.00800           0
      7364 MEMB     55       POPC     H10Y     HAL2     0.900000E-01   1.00800           0
      7365 MEMB     55       POPC     C311     CTL2    -0.180000       12.0110           0
      7366 MEMB     55       POPC     H11X     HAL2     0.900000E-01   1.00800           0
      7367 MEMB     55       POPC     H11Y     HAL2     0.900000E-01   1.00800           0
      7368 MEMB     55       POPC     C312     CTL2    -0.180000       12.0110           0
      7369 MEMB     55       POPC     H12X     HAL2     0.900000E-01   1.00800           0
      7370 MEMB     55       POPC     H12Y     HAL2     0.900000E-01   1.00800           0
      7371 MEMB     55       POPC     C313     CTL2    -0.180000       12.0110           0
      7372 MEMB     55       POPC     H13X     HAL2     0.900000E-01   1.00800           0
      7373 MEMB     55       POPC     H13Y     HAL2     0.900000E-01   1.00800           0
      7374 MEMB     55       POPC     C314     CTL2    -0.180000       12.0110           0
      7375 MEMB     55       POPC     H14X     HAL2     0.900000E-01   1.00800           0
      7376 MEMB     55       POPC     H14Y     HAL2     0.900000E-01   1.00800           0
      7377 MEMB     55       POPC     C315     CTL2    -0.180000       12.0110           0
      7378 MEMB     55       POPC     H15X     HAL2     0.900000E-01   1.00800           0
      7379 MEMB     55       POPC     H15Y     HAL2     0.900000E-01   1.00800           0
      7380 MEMB     55       POPC     C316     CTL3    -0.270000       12.0110           0
      7381 MEMB     55       POPC     H16X     HAL3     0.900000E-01   1.00800           0
      7382 MEMB     55       POPC     H16Y     HAL3     0.900000E-01   1.00800           0
      7383 MEMB     55       POPC     H16Z     HAL3     0.900000E-01   1.00800           0
      7384 MEMB     56       POPS     N        NH3L    -0.300000       14.0070           0
      7385 MEMB     56       POPS     HN1      HCL      0.330000       1.00800           0
      7386 MEMB     56       POPS     HN2      HCL      0.330000       1.00800           0
      7387 MEMB     56       POPS     HN3      HCL      0.330000       1.00800           0
      7388 MEMB     56       POPS     C12      CTL1     0.210000       12.0110           0
      7389 MEMB     56       POPS     H12A     HBL      0.100000       1.00800           0
      7390 MEMB     56       POPS     C13      CCL      0.340000       12.0110           0
      7391 MEMB     56       POPS     O13A     OCL     -0.670000       15.9994           0
      7392 MEMB     56       POPS     O13B     OCL     -0.670000       15.9994           0
      7393 MEMB     56       POPS     C11      CTL2    -0.800000E-01   12.0110           0
      7394 MEMB     56       POPS     H11A     HAL2     0.900000E-01   1.00800           0
      7395 MEMB     56       POPS     H11B     HAL2     0.900000E-01   1.00800           0
      7396 MEMB     56       POPS     P        PL        1.50000       30.9740           0
      7397 MEMB     56       POPS     O13      O2L     -0.780000       15.9994           0
      7398 MEMB     56       POPS     O14      O2L     -0.780000       15.9994           0
      7399 MEMB     56       POPS     O12      OSLP    -0.570000       15.9994           0
      7400 MEMB     56       POPS     O11      OSLP    -0.570000       15.9994           0
      7401 MEMB     56       POPS     C1       CTL2    -0.800000E-01   12.0110           0
      7402 MEMB     56       POPS     HA       HAL2     0.900000E-01   1.00800           0
      7403 MEMB     56       POPS     HB       HAL2     0.900000E-01   1.00800           0
      7404 MEMB     56       POPS     C2       CTL1     0.170000       12.0110           0
      7405 MEMB     56       POPS     HS       HAL1     0.900000E-01   1.00800           0
      7406 MEMB     56       POPS     O21      OSL     -0.490000       15.9994           0
      7407 MEMB     56       POPS     C21      CL       0.900000       12.0110           0
      7408 MEMB     56       POPS     O22      OBL     -0.630000       15.9994           0
      7409 MEMB     56       POPS     C22      CTL2    -0.220000       12.0110           0
      7410 MEMB     56       POPS     H2R      HAL2     0.900000E-01   1.00800           0
      7411 MEMB     56       POPS     H2S      HAL2     0.900000E-01   1.00800           0
      7412 MEMB     56       POPS     C3       CTL2     0.800000E-01   12.0110           0
      7413 MEMB     56       POPS     HX       HAL2     0.900000E-01   1.00800           0
      7414 MEMB     56       POPS     HY       HAL2     0.900000E-01   1.00800           0
      7415 MEMB     56       POPS     O31      OSL     -0.490000       15.9994           0
      7416 MEMB     56       POPS     C31      CL       0.900000       12.0110           0
      7417 MEMB     56       POPS     O32      OBL     -0.630000       15.9994           0
      7418 MEMB     56       POPS     C32      CTL2    -0.220000       12.0110           0
      7419 MEMB     56       POPS     H2X      HAL2     0.900000E-01   1.00800           0
      7420 MEMB     56       POPS     H2Y      HAL2     0.900000E-01   1.00800           0
      7421 MEMB     56       POPS     C23      CTL2    -0.180000       12.0110           0
      7422 MEMB     56       POPS     H3R      HAL2     0.900000E-01   1.00800           0
      7423 MEMB     56       POPS     H3S      HAL2     0.900000E-01   1.00800           0
      7424 MEMB     56       POPS     C24      CTL2    -0.180000       12.0110           0
      7425 MEMB     56       POPS     H4R      HAL2     0.900000E-01   1.00800           0
      7426 MEMB     56       POPS     H4S      HAL2     0.900000E-01   1.00800           0
      7427 MEMB     56       POPS     C25      CTL2    -0.180000       12.0110           0
      7428 MEMB     56       POPS     H5R      HAL2     0.900000E-01   1.00800           0
      7429 MEMB     56       POPS     H5S      HAL2     0.900000E-01   1.00800           0
      7430 MEMB     56       POPS     C26      CTL2    -0.180000       12.0110           0
      7431 MEMB     56       POPS     H6R      HAL2     0.900000E-01   1.00800           0
      7432 MEMB     56       POPS     H6S      HAL2     0.900000E-01   1.00800           0
      7433 MEMB     56       POPS     C27      CTL2    -0.180000       12.0110           0
      7434 MEMB     56       POPS     H7R      HAL2     0.900000E-01   1.00800           0
      7435 MEMB     56       POPS     H7S      HAL2     0.900000E-01   1.00800           0
      7436 MEMB     56       POPS     C28      CTL2    -0.180000       12.0110           0
      7437 MEMB     56       POPS     H8R      HAL2     0.900000E-01   1.00800           0
      7438 MEMB     56       POPS     H8S      HAL2     0.900000E-01   1.00800           0
      7439 MEMB     56       POPS     C29      CEL1    -0.150000       12.0110           0
      7440 MEMB     56       POPS     H91      HEL1     0.150000       1.00800           0
      7441 MEMB     56       POPS     C210     CEL1    -0.150000       12.0110           0
      7442 MEMB     56       POPS     H101     HEL1     0.150000       1.00800           0
      7443 MEMB     56       POPS     C211     CTL2    -0.180000       12.0110           0
      7444 MEMB     56       POPS     H11R     HAL2     0.900000E-01   1.00800           0
      7445 MEMB     56       POPS     H11S     HAL2     0.900000E-01   1.00800           0
      7446 MEMB     56       POPS     C212     CTL2    -0.180000       12.0110           0
      7447 MEMB     56       POPS     H12R     HAL2     0.900000E-01   1.00800           0
      7448 MEMB     56       POPS     H12S     HAL2     0.900000E-01   1.00800           0
      7449 MEMB     56       POPS     C213     CTL2    -0.180000       12.0110           0
      7450 MEMB     56       POPS     H13R     HAL2     0.900000E-01   1.00800           0
      7451 MEMB     56       POPS     H13S     HAL2     0.900000E-01   1.00800           0
      7452 MEMB     56       POPS     C214     CTL2    -0.180000       12.0110           0
      7453 MEMB     56       POPS     H14R     HAL2     0.900000E-01   1.00800           0
      7454 MEMB     56       POPS     H14S     HAL2     0.900000E-01   1.00800           0
      7455 MEMB     56       POPS     C215     CTL2    -0.180000       12.0110           0
      7456 MEMB     56       POPS     H15R     HAL2     0.900000E-01   1.00800           0
      7457 MEMB     56       POPS     H15S     HAL2     0.900000E-01   1.00800           0
      7458 MEMB     56       POPS     C216     CTL2    -0.180000       12.0110           0
      7459 MEMB     56       POPS     H16R     HAL2     0.900000E-01   1.00800           0
      7460 MEMB     56       POPS     H16S     HAL2     0.900000E-01   1.00800           0
      7461 MEMB     56       POPS     C217     CTL2    -0.180000       12.0110           0
      7462 MEMB     56       POPS     H17R     HAL2     0.900000E-01   1.00800           0
      7463 MEMB     56       POPS     H17S     HAL2     0.900000E-01   1.00800           0
      7464 MEMB     56       POPS     C218     CTL3    -0.270000       12.0110           0
      7465 MEMB     56       POPS     H18R     HAL3     0.900000E-01   1.00800           0
      7466 MEMB     56       POPS     H18S     HAL3     0.900000E-01   1.00800           0
      7467 MEMB     56       POPS     H18T     HAL3     0.900000E-01   1.00800           0
      7468 MEMB     56       POPS     C33      CTL2    -0.180000       12.0110           0
      7469 MEMB     56       POPS     H3X      HAL2     0.900000E-01   1.00800           0
      7470 MEMB     56       POPS     H3Y      HAL2     0.900000E-01   1.00800           0
      7471 MEMB     56       POPS     C34      CTL2    -0.180000       12.0110           0
      7472 MEMB     56       POPS     H4X      HAL2     0.900000E-01   1.00800           0
      7473 MEMB     56       POPS     H4Y      HAL2     0.900000E-01   1.00800           0
      7474 MEMB     56       POPS     C35      CTL2    -0.180000       12.0110           0
      7475 MEMB     56       POPS     H5X      HAL2     0.900000E-01   1.00800           0
      7476 MEMB     56       POPS     H5Y      HAL2     0.900000E-01   1.00800           0
      7477 MEMB     56       POPS     C36      CTL2    -0.180000       12.0110           0
      7478 MEMB     56       POPS     H6X      HAL2     0.900000E-01   1.00800           0
      7479 MEMB     56       POPS     H6Y      HAL2     0.900000E-01   1.00800           0
      7480 MEMB     56       POPS     C37      CTL2    -0.180000       12.0110           0
      7481 MEMB     56       POPS     H7X      HAL2     0.900000E-01   1.00800           0
      7482 MEMB     56       POPS     H7Y      HAL2     0.900000E-01   1.00800           0
      7483 MEMB     56       POPS     C38      CTL2    -0.180000       12.0110           0
      7484 MEMB     56       POPS     H8X      HAL2     0.900000E-01   1.00800           0
      7485 MEMB     56       POPS     H8Y      HAL2     0.900000E-01   1.00800           0
      7486 MEMB     56       POPS     C39      CTL2    -0.180000       12.0110           0
      7487 MEMB     56       POPS     H9X      HAL2     0.900000E-01   1.00800           0
      7488 MEMB     56       POPS     H9Y      HAL2     0.900000E-01   1.00800           0
      7489 MEMB     56       POPS     C310     CTL2    -0.180000       12.0110           0
      7490 MEMB     56       POPS     H10X     HAL2     0.900000E-01   1.00800           0
      7491 MEMB     56       POPS     H10Y     HAL2     0.900000E-01   1.00800           0
      7492 MEMB     56       POPS     C311     CTL2    -0.180000       12.0110           0
      7493 MEMB     56       POPS     H11X     HAL2     0.900000E-01   1.00800           0
      7494 MEMB     56       POPS     H11Y     HAL2     0.900000E-01   1.00800           0
      7495 MEMB     56       POPS     C312     CTL2    -0.180000       12.0110           0
      7496 MEMB     56       POPS     H12X     HAL2     0.900000E-01   1.00800           0
      7497 MEMB     56       POPS     H12Y     HAL2     0.900000E-01   1.00800           0
      7498 MEMB     56       POPS     C313     CTL2    -0.180000       12.0110           0
      7499 MEMB     56       POPS     H13X     HAL2     0.900000E-01   1.00800           0
      7500 MEMB     56       POPS     H13Y     HAL2     0.900000E-01   1.00800           0
      7501 MEMB     56       POPS     C314     CTL2    -0.180000       12.0110           0
      7502 MEMB     56       POPS     H14X     HAL2     0.900000E-01   1.00800           0
      7503 MEMB     56       POPS     H14Y     HAL2     0.900000E-01   1.00800           0
      7504 MEMB     56       POPS     C315     CTL2    -0.180000       12.0110           0
      7505 MEMB     56       POPS     H15X     HAL2     0.900000E-01   1.00800           0
      7506 MEMB     56       POPS     H15Y     HAL2     0.900000E-01   1.00800           0
      7507 MEMB     56       POPS     C316     CTL3    -0.270000       12.0110           0
      7508 MEMB     56       POPS     H16X     HAL3     0.900000E-01   1.00800           0
      7509 MEMB     56       POPS     H16Y     HAL3     0.900000E-01   1.00800           0
      7510 MEMB     56       POPS     H16Z     HAL3     0.900000E-01   1.00800           0
      7511 MEMB     57       POPC     N        NTL     -0.600000       14.0070           0
      7512 MEMB     57       POPC     C12      CTL2    -0.100000       12.0110           0
      7513 MEMB     57       POPC     H12A     HL       0.250000       1.00800           0
      7514 MEMB     57       POPC     H12B     HL       0.250000       1.00800           0
      7515 MEMB     57       POPC     C13      CTL5    -0.350000       12.0110           0
      7516 MEMB     57       POPC     H13A     HL       0.250000       1.00800           0
      7517 MEMB     57       POPC     H13B     HL       0.250000       1.00800           0
      7518 MEMB     57       POPC     H13C     HL       0.250000       1.00800           0
      7519 MEMB     57       POPC     C14      CTL5    -0.350000       12.0110           0
      7520 MEMB     57       POPC     H14A     HL       0.250000       1.00800           0
      7521 MEMB     57       POPC     H14B     HL       0.250000       1.00800           0
      7522 MEMB     57       POPC     H14C     HL       0.250000       1.00800           0
      7523 MEMB     57       POPC     C15      CTL5    -0.350000       12.0110           0
      7524 MEMB     57       POPC     H15A     HL       0.250000       1.00800           0
      7525 MEMB     57       POPC     H15B     HL       0.250000       1.00800           0
      7526 MEMB     57       POPC     H15C     HL       0.250000       1.00800           0
      7527 MEMB     57       POPC     C11      CTL2    -0.800000E-01   12.0110           0
      7528 MEMB     57       POPC     H11A     HAL2     0.900000E-01   1.00800           0
      7529 MEMB     57       POPC     H11B     HAL2     0.900000E-01   1.00800           0
      7530 MEMB     57       POPC     P        PL        1.50000       30.9740           0
      7531 MEMB     57       POPC     O13      O2L     -0.780000       15.9994           0
      7532 MEMB     57       POPC     O14      O2L     -0.780000       15.9994           0
      7533 MEMB     57       POPC     O12      OSLP    -0.570000       15.9994           0
      7534 MEMB     57       POPC     O11      OSLP    -0.570000       15.9994           0
      7535 MEMB     57       POPC     C1       CTL2    -0.800000E-01   12.0110           0
      7536 MEMB     57       POPC     HA       HAL2     0.900000E-01   1.00800           0
      7537 MEMB     57       POPC     HB       HAL2     0.900000E-01   1.00800           0
      7538 MEMB     57       POPC     C2       CTL1     0.170000       12.0110           0
      7539 MEMB     57       POPC     HS       HAL1     0.900000E-01   1.00800           0
      7540 MEMB     57       POPC     O21      OSL     -0.490000       15.9994           0
      7541 MEMB     57       POPC     C21      CL       0.900000       12.0110           0
      7542 MEMB     57       POPC     O22      OBL     -0.630000       15.9994           0
      7543 MEMB     57       POPC     C22      CTL2    -0.220000       12.0110           0
      7544 MEMB     57       POPC     H2R      HAL2     0.900000E-01   1.00800           0
      7545 MEMB     57       POPC     H2S      HAL2     0.900000E-01   1.00800           0
      7546 MEMB     57       POPC     C3       CTL2     0.800000E-01   12.0110           0
      7547 MEMB     57       POPC     HX       HAL2     0.900000E-01   1.00800           0
      7548 MEMB     57       POPC     HY       HAL2     0.900000E-01   1.00800           0
      7549 MEMB     57       POPC     O31      OSL     -0.490000       15.9994           0
      7550 MEMB     57       POPC     C31      CL       0.900000       12.0110           0
      7551 MEMB     57       POPC     O32      OBL     -0.630000       15.9994           0
      7552 MEMB     57       POPC     C32      CTL2    -0.220000       12.0110           0
      7553 MEMB     57       POPC     H2X      HAL2     0.900000E-01   1.00800           0
      7554 MEMB     57       POPC     H2Y      HAL2     0.900000E-01   1.00800           0
      7555 MEMB     57       POPC     C23      CTL2    -0.180000       12.0110           0
      7556 MEMB     57       POPC     H3R      HAL2     0.900000E-01   1.00800           0
      7557 MEMB     57       POPC     H3S      HAL2     0.900000E-01   1.00800           0
      7558 MEMB     57       POPC     C24      CTL2    -0.180000       12.0110           0
      7559 MEMB     57       POPC     H4R      HAL2     0.900000E-01   1.00800           0
      7560 MEMB     57       POPC     H4S      HAL2     0.900000E-01   1.00800           0
      7561 MEMB     57       POPC     C25      CTL2    -0.180000       12.0110           0
      7562 MEMB     57       POPC     H5R      HAL2     0.900000E-01   1.00800           0
      7563 MEMB     57       POPC     H5S      HAL2     0.900000E-01   1.00800           0
      7564 MEMB     57       POPC     C26      CTL2    -0.180000       12.0110           0
      7565 MEMB     57       POPC     H6R      HAL2     0.900000E-01   1.00800           0
      7566 MEMB     57       POPC     H6S      HAL2     0.900000E-01   1.00800           0
      7567 MEMB     57       POPC     C27      CTL2    -0.180000       12.0110           0
      7568 MEMB     57       POPC     H7R      HAL2     0.900000E-01   1.00800           0
      7569 MEMB     57       POPC     H7S      HAL2     0.900000E-01   1.00800           0
      7570 MEMB     57       POPC     C28      CTL2    -0.180000       12.0110           0
      7571 MEMB     57       POPC     H8R      HAL2     0.900000E-01   1.00800           0
      7572 MEMB     57       POPC     H8S      HAL2     0.900000E-01   1.00800           0
      7573 MEMB     57       POPC     C29      CEL1    -0.150000       12.0110           0
      7574 MEMB     57       POPC     H91      HEL1     0.150000       1.00800           0
      7575 MEMB     57       POPC     C210     CEL1    -0.150000       12.0110           0
      7576 MEMB     57       POPC     H101     HEL1     0.150000       1.00800           0
      7577 MEMB     57       POPC     C211     CTL2    -0.180000       12.0110           0
      7578 MEMB     57       POPC     H11R     HAL2     0.900000E-01   1.00800           0
      7579 MEMB     57       POPC     H11S     HAL2     0.900000E-01   1.00800           0
      7580 MEMB     57       POPC     C212     CTL2    -0.180000       12.0110           0
      7581 MEMB     57       POPC     H12R     HAL2     0.900000E-01   1.00800           0
      7582 MEMB     57       POPC     H12S     HAL2     0.900000E-01   1.00800           0
      7583 MEMB     57       POPC     C213     CTL2    -0.180000       12.0110           0
      7584 MEMB     57       POPC     H13R     HAL2     0.900000E-01   1.00800           0
      7585 MEMB     57       POPC     H13S     HAL2     0.900000E-01   1.00800           0
      7586 MEMB     57       POPC     C214     CTL2    -0.180000       12.0110           0
      7587 MEMB     57       POPC     H14R     HAL2     0.900000E-01   1.00800           0
      7588 MEMB     57       POPC     H14S     HAL2     0.900000E-01   1.00800           0
      7589 MEMB     57       POPC     C215     CTL2    -0.180000       12.0110           0
      7590 MEMB     57       POPC     H15R     HAL2     0.900000E-01   1.00800           0
      7591 MEMB     57       POPC     H15S     HAL2     0.900000E-01   1.00800           0
      7592 MEMB     57       POPC     C216     CTL2    -0.180000       12.0110           0
      7593 MEMB     57       POPC     H16R     HAL2     0.900000E-01   1.00800           0
      7594 MEMB     57       POPC     H16S     HAL2     0.900000E-01   1.00800           0
      7595 MEMB     57       POPC     C217     CTL2    -0.180000       12.0110           0
      7596 MEMB     57       POPC     H17R     HAL2     0.900000E-01   1.00800           0
      7597 MEMB     57       POPC     H17S     HAL2     0.900000E-01   1.00800           0
      7598 MEMB     57       POPC     C218     CTL3    -0.270000       12.0110           0
      7599 MEMB     57       POPC     H18R     HAL3     0.900000E-01   1.00800           0
      7600 MEMB     57       POPC     H18S     HAL3     0.900000E-01   1.00800           0
      7601 MEMB     57       POPC     H18T     HAL3     0.900000E-01   1.00800           0
      7602 MEMB     57       POPC     C33      CTL2    -0.180000       12.0110           0
      7603 MEMB     57       POPC     H3X      HAL2     0.900000E-01   1.00800           0
      7604 MEMB     57       POPC     H3Y      HAL2     0.900000E-01   1.00800           0
      7605 MEMB     57       POPC     C34      CTL2    -0.180000       12.0110           0
      7606 MEMB     57       POPC     H4X      HAL2     0.900000E-01   1.00800           0
      7607 MEMB     57       POPC     H4Y      HAL2     0.900000E-01   1.00800           0
      7608 MEMB     57       POPC     C35      CTL2    -0.180000       12.0110           0
      7609 MEMB     57       POPC     H5X      HAL2     0.900000E-01   1.00800           0
      7610 MEMB     57       POPC     H5Y      HAL2     0.900000E-01   1.00800           0
      7611 MEMB     57       POPC     C36      CTL2    -0.180000       12.0110           0
      7612 MEMB     57       POPC     H6X      HAL2     0.900000E-01   1.00800           0
      7613 MEMB     57       POPC     H6Y      HAL2     0.900000E-01   1.00800           0
      7614 MEMB     57       POPC     C37      CTL2    -0.180000       12.0110           0
      7615 MEMB     57       POPC     H7X      HAL2     0.900000E-01   1.00800           0
      7616 MEMB     57       POPC     H7Y      HAL2     0.900000E-01   1.00800           0
      7617 MEMB     57       POPC     C38      CTL2    -0.180000       12.0110           0
      7618 MEMB     57       POPC     H8X      HAL2     0.900000E-01   1.00800           0
      7619 MEMB     57       POPC     H8Y      HAL2     0.900000E-01   1.00800           0
      7620 MEMB     57       POPC     C39      CTL2    -0.180000       12.0110           0
      7621 MEMB     57       POPC     H9X      HAL2     0.900000E-01   1.00800           0
      7622 MEMB     57       POPC     H9Y      HAL2     0.900000E-01   1.00800           0
      7623 MEMB     57       POPC     C310     CTL2    -0.180000       12.0110           0
      7624 MEMB     57       POPC     H10X     HAL2     0.900000E-01   1.00800           0
      7625 MEMB     57       POPC     H10Y     HAL2     0.900000E-01   1.00800           0
      7626 MEMB     57       POPC     C311     CTL2    -0.180000       12.0110           0
      7627 MEMB     57       POPC     H11X     HAL2     0.900000E-01   1.00800           0
      7628 MEMB     57       POPC     H11Y     HAL2     0.900000E-01   1.00800           0
      7629 MEMB     57       POPC     C312     CTL2    -0.180000       12.0110           0
      7630 MEMB     57       POPC     H12X     HAL2     0.900000E-01   1.00800           0
      7631 MEMB     57       POPC     H12Y     HAL2     0.900000E-01   1.00800           0
      7632 MEMB     57       POPC     C313     CTL2    -0.180000       12.0110           0
      7633 MEMB     57       POPC     H13X     HAL2     0.900000E-01   1.00800           0
      7634 MEMB     57       POPC     H13Y     HAL2     0.900000E-01   1.00800           0
      7635 MEMB     57       POPC     C314     CTL2    -0.180000       12.0110           0
      7636 MEMB     57       POPC     H14X     HAL2     0.900000E-01   1.00800           0
      7637 MEMB     57       POPC     H14Y     HAL2     0.900000E-01   1.00800           0
      7638 MEMB     57       POPC     C315     CTL2    -0.180000       12.0110           0
      7639 MEMB     57       POPC     H15X     HAL2     0.900000E-01   1.00800           0
      7640 MEMB     57       POPC     H15Y     HAL2     0.900000E-01   1.00800           0
      7641 MEMB     57       POPC     C316     CTL3    -0.270000       12.0110           0
      7642 MEMB     57       POPC     H16X     HAL3     0.900000E-01   1.00800           0
      7643 MEMB     57       POPC     H16Y     HAL3     0.900000E-01   1.00800           0
      7644 MEMB     57       POPC     H16Z     HAL3     0.900000E-01   1.00800           0
      7645 MEMB     58       POPC     N        NTL     -0.600000       14.0070           0
      7646 MEMB     58       POPC     C12      CTL2    -0.100000       12.0110           0
      7647 MEMB     58       POPC     H12A     HL       0.250000       1.00800           0
      7648 MEMB     58       POPC     H12B     HL       0.250000       1.00800           0
      7649 MEMB     58       POPC     C13      CTL5    -0.350000       12.0110           0
      7650 MEMB     58       POPC     H13A     HL       0.250000       1.00800           0
      7651 MEMB     58       POPC     H13B     HL       0.250000       1.00800           0
      7652 MEMB     58       POPC     H13C     HL       0.250000       1.00800           0
      7653 MEMB     58       POPC     C14      CTL5    -0.350000       12.0110           0
      7654 MEMB     58       POPC     H14A     HL       0.250000       1.00800           0
      7655 MEMB     58       POPC     H14B     HL       0.250000       1.00800           0
      7656 MEMB     58       POPC     H14C     HL       0.250000       1.00800           0
      7657 MEMB     58       POPC     C15      CTL5    -0.350000       12.0110           0
      7658 MEMB     58       POPC     H15A     HL       0.250000       1.00800           0
      7659 MEMB     58       POPC     H15B     HL       0.250000       1.00800           0
      7660 MEMB     58       POPC     H15C     HL       0.250000       1.00800           0
      7661 MEMB     58       POPC     C11      CTL2    -0.800000E-01   12.0110           0
      7662 MEMB     58       POPC     H11A     HAL2     0.900000E-01   1.00800           0
      7663 MEMB     58       POPC     H11B     HAL2     0.900000E-01   1.00800           0
      7664 MEMB     58       POPC     P        PL        1.50000       30.9740           0
      7665 MEMB     58       POPC     O13      O2L     -0.780000       15.9994           0
      7666 MEMB     58       POPC     O14      O2L     -0.780000       15.9994           0
      7667 MEMB     58       POPC     O12      OSLP    -0.570000       15.9994           0
      7668 MEMB     58       POPC     O11      OSLP    -0.570000       15.9994           0
      7669 MEMB     58       POPC     C1       CTL2    -0.800000E-01   12.0110           0
      7670 MEMB     58       POPC     HA       HAL2     0.900000E-01   1.00800           0
      7671 MEMB     58       POPC     HB       HAL2     0.900000E-01   1.00800           0
      7672 MEMB     58       POPC     C2       CTL1     0.170000       12.0110           0
      7673 MEMB     58       POPC     HS       HAL1     0.900000E-01   1.00800           0
      7674 MEMB     58       POPC     O21      OSL     -0.490000       15.9994           0
      7675 MEMB     58       POPC     C21      CL       0.900000       12.0110           0
      7676 MEMB     58       POPC     O22      OBL     -0.630000       15.9994           0
      7677 MEMB     58       POPC     C22      CTL2    -0.220000       12.0110           0
      7678 MEMB     58       POPC     H2R      HAL2     0.900000E-01   1.00800           0
      7679 MEMB     58       POPC     H2S      HAL2     0.900000E-01   1.00800           0
      7680 MEMB     58       POPC     C3       CTL2     0.800000E-01   12.0110           0
      7681 MEMB     58       POPC     HX       HAL2     0.900000E-01   1.00800           0
      7682 MEMB     58       POPC     HY       HAL2     0.900000E-01   1.00800           0
      7683 MEMB     58       POPC     O31      OSL     -0.490000       15.9994           0
      7684 MEMB     58       POPC     C31      CL       0.900000       12.0110           0
      7685 MEMB     58       POPC     O32      OBL     -0.630000       15.9994           0
      7686 MEMB     58       POPC     C32      CTL2    -0.220000       12.0110           0
      7687 MEMB     58       POPC     H2X      HAL2     0.900000E-01   1.00800           0
      7688 MEMB     58       POPC     H2Y      HAL2     0.900000E-01   1.00800           0
      7689 MEMB     58       POPC     C23      CTL2    -0.180000       12.0110           0
      7690 MEMB     58       POPC     H3R      HAL2     0.900000E-01   1.00800           0
      7691 MEMB     58       POPC     H3S      HAL2     0.900000E-01   1.00800           0
      7692 MEMB     58       POPC     C24      CTL2    -0.180000       12.0110           0
      7693 MEMB     58       POPC     H4R      HAL2     0.900000E-01   1.00800           0
      7694 MEMB     58       POPC     H4S      HAL2     0.900000E-01   1.00800           0
      7695 MEMB     58       POPC     C25      CTL2    -0.180000       12.0110           0
      7696 MEMB     58       POPC     H5R      HAL2     0.900000E-01   1.00800           0
      7697 MEMB     58       POPC     H5S      HAL2     0.900000E-01   1.00800           0
      7698 MEMB     58       POPC     C26      CTL2    -0.180000       12.0110           0
      7699 MEMB     58       POPC     H6R      HAL2     0.900000E-01   1.00800           0
      7700 MEMB     58       POPC     H6S      HAL2     0.900000E-01   1.00800           0
      7701 MEMB     58       POPC     C27      CTL2    -0.180000       12.0110           0
      7702 MEMB     58       POPC     H7R      HAL2     0.900000E-01   1.00800           0
      7703 MEMB     58       POPC     H7S      HAL2     0.900000E-01   1.00800           0
      7704 MEMB     58       POPC     C28      CTL2    -0.180000       12.0110           0
      7705 MEMB     58       POPC     H8R      HAL2     0.900000E-01   1.00800           0
      7706 MEMB     58       POPC     H8S      HAL2     0.900000E-01   1.00800           0
      7707 MEMB     58       POPC     C29      CEL1    -0.150000       12.0110           0
      7708 MEMB     58       POPC     H91      HEL1     0.150000       1.00800           0
      7709 MEMB     58       POPC     C210     CEL1    -0.150000       12.0110           0
      7710 MEMB     58       POPC     H101     HEL1     0.150000       1.00800           0
      7711 MEMB     58       POPC     C211     CTL2    -0.180000       12.0110           0
      7712 MEMB     58       POPC     H11R     HAL2     0.900000E-01   1.00800           0
      7713 MEMB     58       POPC     H11S     HAL2     0.900000E-01   1.00800           0
      7714 MEMB     58       POPC     C212     CTL2    -0.180000       12.0110           0
      7715 MEMB     58       POPC     H12R     HAL2     0.900000E-01   1.00800           0
      7716 MEMB     58       POPC     H12S     HAL2     0.900000E-01   1.00800           0
      7717 MEMB     58       POPC     C213     CTL2    -0.180000       12.0110           0
      7718 MEMB     58       POPC     H13R     HAL2     0.900000E-01   1.00800           0
      7719 MEMB     58       POPC     H13S     HAL2     0.900000E-01   1.00800           0
      7720 MEMB     58       POPC     C214     CTL2    -0.180000       12.0110           0
      7721 MEMB     58       POPC     H14R     HAL2     0.900000E-01   1.00800           0
      7722 MEMB     58       POPC     H14S     HAL2     0.900000E-01   1.00800           0
      7723 MEMB     58       POPC     C215     CTL2    -0.180000       12.0110           0
      7724 MEMB     58       POPC     H15R     HAL2     0.900000E-01   1.00800           0
      7725 MEMB     58       POPC     H15S     HAL2     0.900000E-01   1.00800           0
      7726 MEMB     58       POPC     C216     CTL2    -0.180000       12.0110           0
      7727 MEMB     58       POPC     H16R     HAL2     0.900000E-01   1.00800           0
      7728 MEMB     58       POPC     H16S     HAL2     0.900000E-01   1.00800           0
      7729 MEMB     58       POPC     C217     CTL2    -0.180000       12.0110           0
      7730 MEMB     58       POPC     H17R     HAL2     0.900000E-01   1.00800           0
      7731 MEMB     58       POPC     H17S     HAL2     0.900000E-01   1.00800           0
      7732 MEMB     58       POPC     C218     CTL3    -0.270000       12.0110           0
      7733 MEMB     58       POPC     H18R     HAL3     0.900000E-01   1.00800           0
      7734 MEMB     58       POPC     H18S     HAL3     0.900000E-01   1.00800           0
      7735 MEMB     58       POPC     H18T     HAL3     0.900000E-01   1.00800           0
      7736 MEMB     58       POPC     C33      CTL2    -0.180000       12.0110           0
      7737 MEMB     58       POPC     H3X      HAL2     0.900000E-01   1.00800           0
      7738 MEMB     58       POPC     H3Y      HAL2     0.900000E-01   1.00800           0
      7739 MEMB     58       POPC     C34      CTL2    -0.180000       12.0110           0
      7740 MEMB     58       POPC     H4X      HAL2     0.900000E-01   1.00800           0
      7741 MEMB     58       POPC     H4Y      HAL2     0.900000E-01   1.00800           0
      7742 MEMB     58       POPC     C35      CTL2    -0.180000       12.0110           0
      7743 MEMB     58       POPC     H5X      HAL2     0.900000E-01   1.00800           0
      7744 MEMB     58       POPC     H5Y      HAL2     0.900000E-01   1.00800           0
      7745 MEMB     58       POPC     C36      CTL2    -0.180000       12.0110           0
      7746 MEMB     58       POPC     H6X      HAL2     0.900000E-01   1.00800           0
      7747 MEMB     58       POPC     H6Y      HAL2     0.900000E-01   1.00800           0
      7748 MEMB     58       POPC     C37      CTL2    -0.180000       12.0110           0
      7749 MEMB     58       POPC     H7X      HAL2     0.900000E-01   1.00800           0
      7750 MEMB     58       POPC     H7Y      HAL2     0.900000E-01   1.00800           0
      7751 MEMB     58       POPC     C38      CTL2    -0.180000       12.0110           0
      7752 MEMB     58       POPC     H8X      HAL2     0.900000E-01   1.00800           0
      7753 MEMB     58       POPC     H8Y      HAL2     0.900000E-01   1.00800           0
      7754 MEMB     58       POPC     C39      CTL2    -0.180000       12.0110           0
      7755 MEMB     58       POPC     H9X      HAL2     0.900000E-01   1.00800           0
      7756 MEMB     58       POPC     H9Y      HAL2     0.900000E-01   1.00800           0
      7757 MEMB     58       POPC     C310     CTL2    -0.180000       12.0110           0
      7758 MEMB     58       POPC     H10X     HAL2     0.900000E-01   1.00800           0
      7759 MEMB     58       POPC     H10Y     HAL2     0.900000E-01   1.00800           0
      7760 MEMB     58       POPC     C311     CTL2    -0.180000       12.0110           0
      7761 MEMB     58       POPC     H11X     HAL2     0.900000E-01   1.00800           0
      7762 MEMB     58       POPC     H11Y     HAL2     0.900000E-01   1.00800           0
      7763 MEMB     58       POPC     C312     CTL2    -0.180000       12.0110           0
      7764 MEMB     58       POPC     H12X     HAL2     0.900000E-01   1.00800           0
      7765 MEMB     58       POPC     H12Y     HAL2     0.900000E-01   1.00800           0
      7766 MEMB     58       POPC     C313     CTL2    -0.180000       12.0110           0
      7767 MEMB     58       POPC     H13X     HAL2     0.900000E-01   1.00800           0
      7768 MEMB     58       POPC     H13Y     HAL2     0.900000E-01   1.00800           0
      7769 MEMB     58       POPC     C314     CTL2    -0.180000       12.0110           0
      7770 MEMB     58       POPC     H14X     HAL2     0.900000E-01   1.00800           0
      7771 MEMB     58       POPC     H14Y     HAL2     0.900000E-01   1.00800           0
      7772 MEMB     58       POPC     C315     CTL2    -0.180000       12.0110           0
      7773 MEMB     58       POPC     H15X     HAL2     0.900000E-01   1.00800           0
      7774 MEMB     58       POPC     H15Y     HAL2     0.900000E-01   1.00800           0
      7775 MEMB     58       POPC     C316     CTL3    -0.270000       12.0110           0
      7776 MEMB     58       POPC     H16X     HAL3     0.900000E-01   1.00800           0
      7777 MEMB     58       POPC     H16Y     HAL3     0.900000E-01   1.00800           0
      7778 MEMB     58       POPC     H16Z     HAL3     0.900000E-01   1.00800           0
      7779 MEMB     59       POPC     N        NTL     -0.600000       14.0070           0
      7780 MEMB     59       POPC     C12      CTL2    -0.100000       12.0110           0
      7781 MEMB     59       POPC     H12A     HL       0.250000       1.00800           0
      7782 MEMB     59       POPC     H12B     HL       0.250000       1.00800           0
      7783 MEMB     59       POPC     C13      CTL5    -0.350000       12.0110           0
      7784 MEMB     59       POPC     H13A     HL       0.250000       1.00800           0
      7785 MEMB     59       POPC     H13B     HL       0.250000       1.00800           0
      7786 MEMB     59       POPC     H13C     HL       0.250000       1.00800           0
      7787 MEMB     59       POPC     C14      CTL5    -0.350000       12.0110           0
      7788 MEMB     59       POPC     H14A     HL       0.250000       1.00800           0
      7789 MEMB     59       POPC     H14B     HL       0.250000       1.00800           0
      7790 MEMB     59       POPC     H14C     HL       0.250000       1.00800           0
      7791 MEMB     59       POPC     C15      CTL5    -0.350000       12.0110           0
      7792 MEMB     59       POPC     H15A     HL       0.250000       1.00800           0
      7793 MEMB     59       POPC     H15B     HL       0.250000       1.00800           0
      7794 MEMB     59       POPC     H15C     HL       0.250000       1.00800           0
      7795 MEMB     59       POPC     C11      CTL2    -0.800000E-01   12.0110           0
      7796 MEMB     59       POPC     H11A     HAL2     0.900000E-01   1.00800           0
      7797 MEMB     59       POPC     H11B     HAL2     0.900000E-01   1.00800           0
      7798 MEMB     59       POPC     P        PL        1.50000       30.9740           0
      7799 MEMB     59       POPC     O13      O2L     -0.780000       15.9994           0
      7800 MEMB     59       POPC     O14      O2L     -0.780000       15.9994           0
      7801 MEMB     59       POPC     O12      OSLP    -0.570000       15.9994           0
      7802 MEMB     59       POPC     O11      OSLP    -0.570000       15.9994           0
      7803 MEMB     59       POPC     C1       CTL2    -0.800000E-01   12.0110           0
      7804 MEMB     59       POPC     HA       HAL2     0.900000E-01   1.00800           0
      7805 MEMB     59       POPC     HB       HAL2     0.900000E-01   1.00800           0
      7806 MEMB     59       POPC     C2       CTL1     0.170000       12.0110           0
      7807 MEMB     59       POPC     HS       HAL1     0.900000E-01   1.00800           0
      7808 MEMB     59       POPC     O21      OSL     -0.490000       15.9994           0
      7809 MEMB     59       POPC     C21      CL       0.900000       12.0110           0
      7810 MEMB     59       POPC     O22      OBL     -0.630000       15.9994           0
      7811 MEMB     59       POPC     C22      CTL2    -0.220000       12.0110           0
      7812 MEMB     59       POPC     H2R      HAL2     0.900000E-01   1.00800           0
      7813 MEMB     59       POPC     H2S      HAL2     0.900000E-01   1.00800           0
      7814 MEMB     59       POPC     C3       CTL2     0.800000E-01   12.0110           0
      7815 MEMB     59       POPC     HX       HAL2     0.900000E-01   1.00800           0
      7816 MEMB     59       POPC     HY       HAL2     0.900000E-01   1.00800           0
      7817 MEMB     59       POPC     O31      OSL     -0.490000       15.9994           0
      7818 MEMB     59       POPC     C31      CL       0.900000       12.0110           0
      7819 MEMB     59       POPC     O32      OBL     -0.630000       15.9994           0
      7820 MEMB     59       POPC     C32      CTL2    -0.220000       12.0110           0
      7821 MEMB     59       POPC     H2X      HAL2     0.900000E-01   1.00800           0
      7822 MEMB     59       POPC     H2Y      HAL2     0.900000E-01   1.00800           0
      7823 MEMB     59       POPC     C23      CTL2    -0.180000       12.0110           0
      7824 MEMB     59       POPC     H3R      HAL2     0.900000E-01   1.00800           0
      7825 MEMB     59       POPC     H3S      HAL2     0.900000E-01   1.00800           0
      7826 MEMB     59       POPC     C24      CTL2    -0.180000       12.0110           0
      7827 MEMB     59       POPC     H4R      HAL2     0.900000E-01   1.00800           0
      7828 MEMB     59       POPC     H4S      HAL2     0.900000E-01   1.00800           0
      7829 MEMB     59       POPC     C25      CTL2    -0.180000       12.0110           0
      7830 MEMB     59       POPC     H5R      HAL2     0.900000E-01   1.00800           0
      7831 MEMB     59       POPC     H5S      HAL2     0.900000E-01   1.00800           0
      7832 MEMB     59       POPC     C26      CTL2    -0.180000       12.0110           0
      7833 MEMB     59       POPC     H6R      HAL2     0.900000E-01   1.00800           0
      7834 MEMB     59       POPC     H6S      HAL2     0.900000E-01   1.00800           0
      7835 MEMB     59       POPC     C27      CTL2    -0.180000       12.0110           0
      7836 MEMB     59       POPC     H7R      HAL2     0.900000E-01   1.00800           0
      7837 MEMB     59       POPC     H7S      HAL2     0.900000E-01   1.00800           0
      7838 MEMB     59       POPC     C28      CTL2    -0.180000       12.0110           0
      7839 MEMB     59       POPC     H8R      HAL2     0.900000E-01   1.00800           0
      7840 MEMB     59       POPC     H8S      HAL2     0.900000E-01   1.00800           0
      7841 MEMB     59       POPC     C29      CEL1    -0.150000       12.0110           0
      7842 MEMB     59       POPC     H91      HEL1     0.150000       1.00800           0
      7843 MEMB     59       POPC     C210     CEL1    -0.150000       12.0110           0
      7844 MEMB     59       POPC     H101     HEL1     0.150000       1.00800           0
      7845 MEMB     59       POPC     C211     CTL2    -0.180000       12.0110           0
      7846 MEMB     59       POPC     H11R     HAL2     0.900000E-01   1.00800           0
      7847 MEMB     59       POPC     H11S     HAL2     0.900000E-01   1.00800           0
      7848 MEMB     59       POPC     C212     CTL2    -0.180000       12.0110           0
      7849 MEMB     59       POPC     H12R     HAL2     0.900000E-01   1.00800           0
      7850 MEMB     59       POPC     H12S     HAL2     0.900000E-01   1.00800           0
      7851 MEMB     59       POPC     C213     CTL2    -0.180000       12.0110           0
      7852 MEMB     59       POPC     H13R     HAL2     0.900000E-01   1.00800           0
      7853 MEMB     59       POPC     H13S     HAL2     0.900000E-01   1.00800           0
      7854 MEMB     59       POPC     C214     CTL2    -0.180000       12.0110           0
      7855 MEMB     59       POPC     H14R     HAL2     0.900000E-01   1.00800           0
      7856 MEMB     59       POPC     H14S     HAL2     0.900000E-01   1.00800           0
      7857 MEMB     59       POPC     C215     CTL2    -0.180000       12.0110           0
      7858 MEMB     59       POPC     H15R     HAL2     0.900000E-01   1.00800           0
      7859 MEMB     59       POPC     H15S     HAL2     0.900000E-01   1.00800           0
      7860 MEMB     59       POPC     C216     CTL2    -0.180000       12.0110           0
      7861 MEMB     59       POPC     H16R     HAL2     0.900000E-01   1.00800           0
      7862 MEMB     59       POPC     H16S     HAL2     0.900000E-01   1.00800           0
      7863 MEMB     59       POPC     C217     CTL2    -0.180000       12.0110           0
      7864 MEMB     59       POPC     H17R     HAL2     0.900000E-01   1.00800           0
      7865 MEMB     59       POPC     H17S     HAL2     0.900000E-01   1.00800           0
      7866 MEMB     59       POPC     C218     CTL3    -0.270000       12.0110           0
      7867 MEMB     59       POPC     H18R     HAL3     0.900000E-01   1.00800           0
      7868 MEMB     59       POPC     H18S     HAL3     0.900000E-01   1.00800           0
      7869 MEMB     59       POPC     H18T     HAL3     0.900000E-01   1.00800           0
      7870 MEMB     59       POPC     C33      CTL2    -0.180000       12.0110           0
      7871 MEMB     59       POPC     H3X      HAL2     0.900000E-01   1.00800           0
      7872 MEMB     59       POPC     H3Y      HAL2     0.900000E-01   1.00800           0
      7873 MEMB     59       POPC     C34      CTL2    -0.180000       12.0110           0
      7874 MEMB     59       POPC     H4X      HAL2     0.900000E-01   1.00800           0
      7875 MEMB     59       POPC     H4Y      HAL2     0.900000E-01   1.00800           0
      7876 MEMB     59       POPC     C35      CTL2    -0.180000       12.0110           0
      7877 MEMB     59       POPC     H5X      HAL2     0.900000E-01   1.00800           0
      7878 MEMB     59       POPC     H5Y      HAL2     0.900000E-01   1.00800           0
      7879 MEMB     59       POPC     C36      CTL2    -0.180000       12.0110           0
      7880 MEMB     59       POPC     H6X      HAL2     0.900000E-01   1.00800           0
      7881 MEMB     59       POPC     H6Y      HAL2     0.900000E-01   1.00800           0
      7882 MEMB     59       POPC     C37      CTL2    -0.180000       12.0110           0
      7883 MEMB     59       POPC     H7X      HAL2     0.900000E-01   1.00800           0
      7884 MEMB     59       POPC     H7Y      HAL2     0.900000E-01   1.00800           0
      7885 MEMB     59       POPC     C38      CTL2    -0.180000       12.0110           0
      7886 MEMB     59       POPC     H8X      HAL2     0.900000E-01   1.00800           0
      7887 MEMB     59       POPC     H8Y      HAL2     0.900000E-01   1.00800           0
      7888 MEMB     59       POPC     C39      CTL2    -0.180000       12.0110           0
      7889 MEMB     59       POPC     H9X      HAL2     0.900000E-01   1.00800           0
      7890 MEMB     59       POPC     H9Y      HAL2     0.900000E-01   1.00800           0
      7891 MEMB     59       POPC     C310     CTL2    -0.180000       12.0110           0
      7892 MEMB     59       POPC     H10X     HAL2     0.900000E-01   1.00800           0
      7893 MEMB     59       POPC     H10Y     HAL2     0.900000E-01   1.00800           0
      7894 MEMB     59       POPC     C311     CTL2    -0.180000       12.0110           0
      7895 MEMB     59       POPC     H11X     HAL2     0.900000E-01   1.00800           0
      7896 MEMB     59       POPC     H11Y     HAL2     0.900000E-01   1.00800           0
      7897 MEMB     59       POPC     C312     CTL2    -0.180000       12.0110           0
      7898 MEMB     59       POPC     H12X     HAL2     0.900000E-01   1.00800           0
      7899 MEMB     59       POPC     H12Y     HAL2     0.900000E-01   1.00800           0
      7900 MEMB     59       POPC     C313     CTL2    -0.180000       12.0110           0
      7901 MEMB     59       POPC     H13X     HAL2     0.900000E-01   1.00800           0
      7902 MEMB     59       POPC     H13Y     HAL2     0.900000E-01   1.00800           0
      7903 MEMB     59       POPC     C314     CTL2    -0.180000       12.0110           0
      7904 MEMB     59       POPC     H14X     HAL2     0.900000E-01   1.00800           0
      7905 MEMB     59       POPC     H14Y     HAL2     0.900000E-01   1.00800           0
      7906 MEMB     59       POPC     C315     CTL2    -0.180000       12.0110           0
      7907 MEMB     59       POPC     H15X     HAL2     0.900000E-01   1.00800           0
      7908 MEMB     59       POPC     H15Y     HAL2     0.900000E-01   1.00800           0
      7909 MEMB     59       POPC     C316     CTL3    -0.270000       12.0110           0
      7910 MEMB     59       POPC     H16X     HAL3     0.900000E-01   1.00800           0
      7911 MEMB     59       POPC     H16Y     HAL3     0.900000E-01   1.00800           0
      7912 MEMB     59       POPC     H16Z     HAL3     0.900000E-01   1.00800           0
      7913 MEMB     60       POPC     N        NTL     -0.600000       14.0070           0
      7914 MEMB     60       POPC     C12      CTL2    -0.100000       12.0110           0
      7915 MEMB     60       POPC     H12A     HL       0.250000       1.00800           0
      7916 MEMB     60       POPC     H12B     HL       0.250000       1.00800           0
      7917 MEMB     60       POPC     C13      CTL5    -0.350000       12.0110           0
      7918 MEMB     60       POPC     H13A     HL       0.250000       1.00800           0
      7919 MEMB     60       POPC     H13B     HL       0.250000       1.00800           0
      7920 MEMB     60       POPC     H13C     HL       0.250000       1.00800           0
      7921 MEMB     60       POPC     C14      CTL5    -0.350000       12.0110           0
      7922 MEMB     60       POPC     H14A     HL       0.250000       1.00800           0
      7923 MEMB     60       POPC     H14B     HL       0.250000       1.00800           0
      7924 MEMB     60       POPC     H14C     HL       0.250000       1.00800           0
      7925 MEMB     60       POPC     C15      CTL5    -0.350000       12.0110           0
      7926 MEMB     60       POPC     H15A     HL       0.250000       1.00800           0
      7927 MEMB     60       POPC     H15B     HL       0.250000       1.00800           0
      7928 MEMB     60       POPC     H15C     HL       0.250000       1.00800           0
      7929 MEMB     60       POPC     C11      CTL2    -0.800000E-01   12.0110           0
      7930 MEMB     60       POPC     H11A     HAL2     0.900000E-01   1.00800           0
      7931 MEMB     60       POPC     H11B     HAL2     0.900000E-01   1.00800           0
      7932 MEMB     60       POPC     P        PL        1.50000       30.9740           0
      7933 MEMB     60       POPC     O13      O2L     -0.780000       15.9994           0
      7934 MEMB     60       POPC     O14      O2L     -0.780000       15.9994           0
      7935 MEMB     60       POPC     O12      OSLP    -0.570000       15.9994           0
      7936 MEMB     60       POPC     O11      OSLP    -0.570000       15.9994           0
      7937 MEMB     60       POPC     C1       CTL2    -0.800000E-01   12.0110           0
      7938 MEMB     60       POPC     HA       HAL2     0.900000E-01   1.00800           0
      7939 MEMB     60       POPC     HB       HAL2     0.900000E-01   1.00800           0
      7940 MEMB     60       POPC     C2       CTL1     0.170000       12.0110           0
      7941 MEMB     60       POPC     HS       HAL1     0.900000E-01   1.00800           0
      7942 MEMB     60       POPC     O21      OSL     -0.490000       15.9994           0
      7943 MEMB     60       POPC     C21      CL       0.900000       12.0110           0
      7944 MEMB     60       POPC     O22      OBL     -0.630000       15.9994           0
      7945 MEMB     60       POPC     C22      CTL2    -0.220000       12.0110           0
      7946 MEMB     60       POPC     H2R      HAL2     0.900000E-01   1.00800           0
      7947 MEMB     60       POPC     H2S      HAL2     0.900000E-01   1.00800           0
      7948 MEMB     60       POPC     C3       CTL2     0.800000E-01   12.0110           0
      7949 MEMB     60       POPC     HX       HAL2     0.900000E-01   1.00800           0
      7950 MEMB     60       POPC     HY       HAL2     0.900000E-01   1.00800           0
      7951 MEMB     60       POPC     O31      OSL     -0.490000       15.9994           0
      7952 MEMB     60       POPC     C31      CL       0.900000       12.0110           0
      7953 MEMB     60       POPC     O32      OBL     -0.630000       15.9994           0
      7954 MEMB     60       POPC     C32      CTL2    -0.220000       12.0110           0
      7955 MEMB     60       POPC     H2X      HAL2     0.900000E-01   1.00800           0
      7956 MEMB     60       POPC     H2Y      HAL2     0.900000E-01   1.00800           0
      7957 MEMB     60       POPC     C23      CTL2    -0.180000       12.0110           0
      7958 MEMB     60       POPC     H3R      HAL2     0.900000E-01   1.00800           0
      7959 MEMB     60       POPC     H3S      HAL2     0.900000E-01   1.00800           0
      7960 MEMB     60       POPC     C24      CTL2    -0.180000       12.0110           0
      7961 MEMB     60       POPC     H4R      HAL2     0.900000E-01   1.00800           0
      7962 MEMB     60       POPC     H4S      HAL2     0.900000E-01   1.00800           0
      7963 MEMB     60       POPC     C25      CTL2    -0.180000       12.0110           0
      7964 MEMB     60       POPC     H5R      HAL2     0.900000E-01   1.00800           0
      7965 MEMB     60       POPC     H5S      HAL2     0.900000E-01   1.00800           0
      7966 MEMB     60       POPC     C26      CTL2    -0.180000       12.0110           0
      7967 MEMB     60       POPC     H6R      HAL2     0.900000E-01   1.00800           0
      7968 MEMB     60       POPC     H6S      HAL2     0.900000E-01   1.00800           0
      7969 MEMB     60       POPC     C27      CTL2    -0.180000       12.0110           0
      7970 MEMB     60       POPC     H7R      HAL2     0.900000E-01   1.00800           0
      7971 MEMB     60       POPC     H7S      HAL2     0.900000E-01   1.00800           0
      7972 MEMB     60       POPC     C28      CTL2    -0.180000       12.0110           0
      7973 MEMB     60       POPC     H8R      HAL2     0.900000E-01   1.00800           0
      7974 MEMB     60       POPC     H8S      HAL2     0.900000E-01   1.00800           0
      7975 MEMB     60       POPC     C29      CEL1    -0.150000       12.0110           0
      7976 MEMB     60       POPC     H91      HEL1     0.150000       1.00800           0
      7977 MEMB     60       POPC     C210     CEL1    -0.150000       12.0110           0
      7978 MEMB     60       POPC     H101     HEL1     0.150000       1.00800           0
      7979 MEMB     60       POPC     C211     CTL2    -0.180000       12.0110           0
      7980 MEMB     60       POPC     H11R     HAL2     0.900000E-01   1.00800           0
      7981 MEMB     60       POPC     H11S     HAL2     0.900000E-01   1.00800           0
      7982 MEMB     60       POPC     C212     CTL2    -0.180000       12.0110           0
      7983 MEMB     60       POPC     H12R     HAL2     0.900000E-01   1.00800           0
      7984 MEMB     60       POPC     H12S     HAL2     0.900000E-01   1.00800           0
      7985 MEMB     60       POPC     C213     CTL2    -0.180000       12.0110           0
      7986 MEMB     60       POPC     H13R     HAL2     0.900000E-01   1.00800           0
      7987 MEMB     60       POPC     H13S     HAL2     0.900000E-01   1.00800           0
      7988 MEMB     60       POPC     C214     CTL2    -0.180000       12.0110           0
      7989 MEMB     60       POPC     H14R     HAL2     0.900000E-01   1.00800           0
      7990 MEMB     60       POPC     H14S     HAL2     0.900000E-01   1.00800           0
      7991 MEMB     60       POPC     C215     CTL2    -0.180000       12.0110           0
      7992 MEMB     60       POPC     H15R     HAL2     0.900000E-01   1.00800           0
      7993 MEMB     60       POPC     H15S     HAL2     0.900000E-01   1.00800           0
      7994 MEMB     60       POPC     C216     CTL2    -0.180000       12.0110           0
      7995 MEMB     60       POPC     H16R     HAL2     0.900000E-01   1.00800           0
      7996 MEMB     60       POPC     H16S     HAL2     0.900000E-01   1.00800           0
      7997 MEMB     60       POPC     C217     CTL2    -0.180000       12.0110           0
      7998 MEMB     60       POPC     H17R     HAL2     0.900000E-01   1.00800           0
      7999 MEMB     60       POPC     H17S     HAL2     0.900000E-01   1.00800           0
      8000 MEMB     60       POPC     C218     CTL3    -0.270000       12.0110           0
      8001 MEMB     60       POPC     H18R     HAL3     0.900000E-01   1.00800           0
      8002 MEMB     60       POPC     H18S     HAL3     0.900000E-01   1.00800           0
      8003 MEMB     60       POPC     H18T     HAL3     0.900000E-01   1.00800           0
      8004 MEMB     60       POPC     C33      CTL2    -0.180000       12.0110           0
      8005 MEMB     60       POPC     H3X      HAL2     0.900000E-01   1.00800           0
      8006 MEMB     60       POPC     H3Y      HAL2     0.900000E-01   1.00800           0
      8007 MEMB     60       POPC     C34      CTL2    -0.180000       12.0110           0
      8008 MEMB     60       POPC     H4X      HAL2     0.900000E-01   1.00800           0
      8009 MEMB     60       POPC     H4Y      HAL2     0.900000E-01   1.00800           0
      8010 MEMB     60       POPC     C35      CTL2    -0.180000       12.0110           0
      8011 MEMB     60       POPC     H5X      HAL2     0.900000E-01   1.00800           0
      8012 MEMB     60       POPC     H5Y      HAL2     0.900000E-01   1.00800           0
      8013 MEMB     60       POPC     C36      CTL2    -0.180000       12.0110           0
      8014 MEMB     60       POPC     H6X      HAL2     0.900000E-01   1.00800           0
      8015 MEMB     60       POPC     H6Y      HAL2     0.900000E-01   1.00800           0
      8016 MEMB     60       POPC     C37      CTL2    -0.180000       12.0110           0
      8017 MEMB     60       POPC     H7X      HAL2     0.900000E-01   1.00800           0
      8018 MEMB     60       POPC     H7Y      HAL2     0.900000E-01   1.00800           0
      8019 MEMB     60       POPC     C38      CTL2    -0.180000       12.0110           0
      8020 MEMB     60       POPC     H8X      HAL2     0.900000E-01   1.00800           0
      8021 MEMB     60       POPC     H8Y      HAL2     0.900000E-01   1.00800           0
      8022 MEMB     60       POPC     C39      CTL2    -0.180000       12.0110           0
      8023 MEMB     60       POPC     H9X      HAL2     0.900000E-01   1.00800           0
      8024 MEMB     60       POPC     H9Y      HAL2     0.900000E-01   1.00800           0
      8025 MEMB     60       POPC     C310     CTL2    -0.180000       12.0110           0
      8026 MEMB     60       POPC     H10X     HAL2     0.900000E-01   1.00800           0
      8027 MEMB     60       POPC     H10Y     HAL2     0.900000E-01   1.00800           0
      8028 MEMB     60       POPC     C311     CTL2    -0.180000       12.0110           0
      8029 MEMB     60       POPC     H11X     HAL2     0.900000E-01   1.00800           0
      8030 MEMB     60       POPC     H11Y     HAL2     0.900000E-01   1.00800           0
      8031 MEMB     60       POPC     C312     CTL2    -0.180000       12.0110           0
      8032 MEMB     60       POPC     H12X     HAL2     0.900000E-01   1.00800           0
      8033 MEMB     60       POPC     H12Y     HAL2     0.900000E-01   1.00800           0
      8034 MEMB     60       POPC     C313     CTL2    -0.180000       12.0110           0
      8035 MEMB     60       POPC     H13X     HAL2     0.900000E-01   1.00800           0
      8036 MEMB     60       POPC     H13Y     HAL2     0.900000E-01   1.00800           0
      8037 MEMB     60       POPC     C314     CTL2    -0.180000       12.0110           0
      8038 MEMB     60       POPC     H14X     HAL2     0.900000E-01   1.00800           0
      8039 MEMB     60       POPC     H14Y     HAL2     0.900000E-01   1.00800           0
      8040 MEMB     60       POPC     C315     CTL2    -0.180000       12.0110           0
      8041 MEMB     60       POPC     H15X     HAL2     0.900000E-01   1.00800           0
      8042 MEMB     60       POPC     H15Y     HAL2     0.900000E-01   1.00800           0
      8043 MEMB     60       POPC     C316     CTL3    -0.270000       12.0110           0
      8044 MEMB     60       POPC     H16X     HAL3     0.900000E-01   1.00800           0
      8045 MEMB     60       POPC     H16Y     HAL3     0.900000E-01   1.00800           0
      8046 MEMB     60       POPC     H16Z     HAL3     0.900000E-01   1.00800           0
      8047 MEMB     61       POPC     N        NTL     -0.600000       14.0070           0
      8048 MEMB     61       POPC     C12      CTL2    -0.100000       12.0110           0
      8049 MEMB     61       POPC     H12A     HL       0.250000       1.00800           0
      8050 MEMB     61       POPC     H12B     HL       0.250000       1.00800           0
      8051 MEMB     61       POPC     C13      CTL5    -0.350000       12.0110           0
      8052 MEMB     61       POPC     H13A     HL       0.250000       1.00800           0
      8053 MEMB     61       POPC     H13B     HL       0.250000       1.00800           0
      8054 MEMB     61       POPC     H13C     HL       0.250000       1.00800           0
      8055 MEMB     61       POPC     C14      CTL5    -0.350000       12.0110           0
      8056 MEMB     61       POPC     H14A     HL       0.250000       1.00800           0
      8057 MEMB     61       POPC     H14B     HL       0.250000       1.00800           0
      8058 MEMB     61       POPC     H14C     HL       0.250000       1.00800           0
      8059 MEMB     61       POPC     C15      CTL5    -0.350000       12.0110           0
      8060 MEMB     61       POPC     H15A     HL       0.250000       1.00800           0
      8061 MEMB     61       POPC     H15B     HL       0.250000       1.00800           0
      8062 MEMB     61       POPC     H15C     HL       0.250000       1.00800           0
      8063 MEMB     61       POPC     C11      CTL2    -0.800000E-01   12.0110           0
      8064 MEMB     61       POPC     H11A     HAL2     0.900000E-01   1.00800           0
      8065 MEMB     61       POPC     H11B     HAL2     0.900000E-01   1.00800           0
      8066 MEMB     61       POPC     P        PL        1.50000       30.9740           0
      8067 MEMB     61       POPC     O13      O2L     -0.780000       15.9994           0
      8068 MEMB     61       POPC     O14      O2L     -0.780000       15.9994           0
      8069 MEMB     61       POPC     O12      OSLP    -0.570000       15.9994           0
      8070 MEMB     61       POPC     O11      OSLP    -0.570000       15.9994           0
      8071 MEMB     61       POPC     C1       CTL2    -0.800000E-01   12.0110           0
      8072 MEMB     61       POPC     HA       HAL2     0.900000E-01   1.00800           0
      8073 MEMB     61       POPC     HB       HAL2     0.900000E-01   1.00800           0
      8074 MEMB     61       POPC     C2       CTL1     0.170000       12.0110           0
      8075 MEMB     61       POPC     HS       HAL1     0.900000E-01   1.00800           0
      8076 MEMB     61       POPC     O21      OSL     -0.490000       15.9994           0
      8077 MEMB     61       POPC     C21      CL       0.900000       12.0110           0
      8078 MEMB     61       POPC     O22      OBL     -0.630000       15.9994           0
      8079 MEMB     61       POPC     C22      CTL2    -0.220000       12.0110           0
      8080 MEMB     61       POPC     H2R      HAL2     0.900000E-01   1.00800           0
      8081 MEMB     61       POPC     H2S      HAL2     0.900000E-01   1.00800           0
      8082 MEMB     61       POPC     C3       CTL2     0.800000E-01   12.0110           0
      8083 MEMB     61       POPC     HX       HAL2     0.900000E-01   1.00800           0
      8084 MEMB     61       POPC     HY       HAL2     0.900000E-01   1.00800           0
      8085 MEMB     61       POPC     O31      OSL     -0.490000       15.9994           0
      8086 MEMB     61       POPC     C31      CL       0.900000       12.0110           0
      8087 MEMB     61       POPC     O32      OBL     -0.630000       15.9994           0
      8088 MEMB     61       POPC     C32      CTL2    -0.220000       12.0110           0
      8089 MEMB     61       POPC     H2X      HAL2     0.900000E-01   1.00800           0
      8090 MEMB     61       POPC     H2Y      HAL2     0.900000E-01   1.00800           0
      8091 MEMB     61       POPC     C23      CTL2    -0.180000       12.0110           0
      8092 MEMB     61       POPC     H3R      HAL2     0.900000E-01   1.00800           0
      8093 MEMB     61       POPC     H3S      HAL2     0.900000E-01   1.00800           0
      8094 MEMB     61       POPC     C24      CTL2    -0.180000       12.0110           0
      8095 MEMB     61       POPC     H4R      HAL2     0.900000E-01   1.00800           0
      8096 MEMB     61       POPC     H4S      HAL2     0.900000E-01   1.00800           0
      8097 MEMB     61       POPC     C25      CTL2    -0.180000       12.0110           0
      8098 MEMB     61       POPC     H5R      HAL2     0.900000E-01   1.00800           0
      8099 MEMB     61       POPC     H5S      HAL2     0.900000E-01   1.00800           0
      8100 MEMB     61       POPC     C26      CTL2    -0.180000       12.0110           0
      8101 MEMB     61       POPC     H6R      HAL2     0.900000E-01   1.00800           0
      8102 MEMB     61       POPC     H6S      HAL2     0.900000E-01   1.00800           0
      8103 MEMB     61       POPC     C27      CTL2    -0.180000       12.0110           0
      8104 MEMB     61       POPC     H7R      HAL2     0.900000E-01   1.00800           0
      8105 MEMB     61       POPC     H7S      HAL2     0.900000E-01   1.00800           0
      8106 MEMB     61       POPC     C28      CTL2    -0.180000       12.0110           0
      8107 MEMB     61       POPC     H8R      HAL2     0.900000E-01   1.00800           0
      8108 MEMB     61       POPC     H8S      HAL2     0.900000E-01   1.00800           0
      8109 MEMB     61       POPC     C29      CEL1    -0.150000       12.0110           0
      8110 MEMB     61       POPC     H91      HEL1     0.150000       1.00800           0
      8111 MEMB     61       POPC     C210     CEL1    -0.150000       12.0110           0
      8112 MEMB     61       POPC     H101     HEL1     0.150000       1.00800           0
      8113 MEMB     61       POPC     C211     CTL2    -0.180000       12.0110           0
      8114 MEMB     61       POPC     H11R     HAL2     0.900000E-01   1.00800           0
      8115 MEMB     61       POPC     H11S     HAL2     0.900000E-01   1.00800           0
      8116 MEMB     61       POPC     C212     CTL2    -0.180000       12.0110           0
      8117 MEMB     61       POPC     H12R     HAL2     0.900000E-01   1.00800           0
      8118 MEMB     61       POPC     H12S     HAL2     0.900000E-01   1.00800           0
      8119 MEMB     61       POPC     C213     CTL2    -0.180000       12.0110           0
      8120 MEMB     61       POPC     H13R     HAL2     0.900000E-01   1.00800           0
      8121 MEMB     61       POPC     H13S     HAL2     0.900000E-01   1.00800           0
      8122 MEMB     61       POPC     C214     CTL2    -0.180000       12.0110           0
      8123 MEMB     61       POPC     H14R     HAL2     0.900000E-01   1.00800           0
      8124 MEMB     61       POPC     H14S     HAL2     0.900000E-01   1.00800           0
      8125 MEMB     61       POPC     C215     CTL2    -0.180000       12.0110           0
      8126 MEMB     61       POPC     H15R     HAL2     0.900000E-01   1.00800           0
      8127 MEMB     61       POPC     H15S     HAL2     0.900000E-01   1.00800           0
      8128 MEMB     61       POPC     C216     CTL2    -0.180000       12.0110           0
      8129 MEMB     61       POPC     H16R     HAL2     0.900000E-01   1.00800           0
      8130 MEMB     61       POPC     H16S     HAL2     0.900000E-01   1.00800           0
      8131 MEMB     61       POPC     C217     CTL2    -0.180000       12.0110           0
      8132 MEMB     61       POPC     H17R     HAL2     0.900000E-01   1.00800           0
      8133 MEMB     61       POPC     H17S     HAL2     0.900000E-01   1.00800           0
      8134 MEMB     61       POPC     C218     CTL3    -0.270000       12.0110           0
      8135 MEMB     61       POPC     H18R     HAL3     0.900000E-01   1.00800           0
      8136 MEMB     61       POPC     H18S     HAL3     0.900000E-01   1.00800           0
      8137 MEMB     61       POPC     H18T     HAL3     0.900000E-01   1.00800           0
      8138 MEMB     61       POPC     C33      CTL2    -0.180000       12.0110           0
      8139 MEMB     61       POPC     H3X      HAL2     0.900000E-01   1.00800           0
      8140 MEMB     61       POPC     H3Y      HAL2     0.900000E-01   1.00800           0
      8141 MEMB     61       POPC     C34      CTL2    -0.180000       12.0110           0
      8142 MEMB     61       POPC     H4X      HAL2     0.900000E-01   1.00800           0
      8143 MEMB     61       POPC     H4Y      HAL2     0.900000E-01   1.00800           0
      8144 MEMB     61       POPC     C35      CTL2    -0.180000       12.0110           0
      8145 MEMB     61       POPC     H5X      HAL2     0.900000E-01   1.00800           0
      8146 MEMB     61       POPC     H5Y      HAL2     0.900000E-01   1.00800           0
      8147 MEMB     61       POPC     C36      CTL2    -0.180000       12.0110           0
      8148 MEMB     61       POPC     H6X      HAL2     0.900000E-01   1.00800           0
      8149 MEMB     61       POPC     H6Y      HAL2     0.900000E-01   1.00800           0
      8150 MEMB     61       POPC     C37      CTL2    -0.180000       12.0110           0
      8151 MEMB     61       POPC     H7X      HAL2     0.900000E-01   1.00800           0
      8152 MEMB     61       POPC     H7Y      HAL2     0.900000E-01   1.00800           0
      8153 MEMB     61       POPC     C38      CTL2    -0.180000       12.0110           0
      8154 MEMB     61       POPC     H8X      HAL2     0.900000E-01   1.00800           0
      8155 MEMB     61       POPC     H8Y      HAL2     0.900000E-01   1.00800           0
      8156 MEMB     61       POPC     C39      CTL2    -0.180000       12.0110           0
      8157 MEMB     61       POPC     H9X      HAL2     0.900000E-01   1.00800           0
      8158 MEMB     61       POPC     H9Y      HAL2     0.900000E-01   1.00800           0
      8159 MEMB     61       POPC     C310     CTL2    -0.180000       12.0110           0
      8160 MEMB     61       POPC     H10X     HAL2     0.900000E-01   1.00800           0
      8161 MEMB     61       POPC     H10Y     HAL2     0.900000E-01   1.00800           0
      8162 MEMB     61       POPC     C311     CTL2    -0.180000       12.0110           0
      8163 MEMB     61       POPC     H11X     HAL2     0.900000E-01   1.00800           0
      8164 MEMB     61       POPC     H11Y     HAL2     0.900000E-01   1.00800           0
      8165 MEMB     61       POPC     C312     CTL2    -0.180000       12.0110           0
      8166 MEMB     61       POPC     H12X     HAL2     0.900000E-01   1.00800           0
      8167 MEMB     61       POPC     H12Y     HAL2     0.900000E-01   1.00800           0
      8168 MEMB     61       POPC     C313     CTL2    -0.180000       12.0110           0
      8169 MEMB     61       POPC     H13X     HAL2     0.900000E-01   1.00800           0
      8170 MEMB     61       POPC     H13Y     HAL2     0.900000E-01   1.00800           0
      8171 MEMB     61       POPC     C314     CTL2    -0.180000       12.0110           0
      8172 MEMB     61       POPC     H14X     HAL2     0.900000E-01   1.00800           0
      8173 MEMB     61       POPC     H14Y     HAL2     0.900000E-01   1.00800           0
      8174 MEMB     61       POPC     C315     CTL2    -0.180000       12.0110           0
      8175 MEMB     61       POPC     H15X     HAL2     0.900000E-01   1.00800           0
      8176 MEMB     61       POPC     H15Y     HAL2     0.900000E-01   1.00800           0
      8177 MEMB     61       POPC     C316     CTL3    -0.270000       12.0110           0
      8178 MEMB     61       POPC     H16X     HAL3     0.900000E-01   1.00800           0
      8179 MEMB     61       POPC     H16Y     HAL3     0.900000E-01   1.00800           0
      8180 MEMB     61       POPC     H16Z     HAL3     0.900000E-01   1.00800           0
      8181 MEMB     62       POPC     N        NTL     -0.600000       14.0070           0
      8182 MEMB     62       POPC     C12      CTL2    -0.100000       12.0110           0
      8183 MEMB     62       POPC     H12A     HL       0.250000       1.00800           0
      8184 MEMB     62       POPC     H12B     HL       0.250000       1.00800           0
      8185 MEMB     62       POPC     C13      CTL5    -0.350000       12.0110           0
      8186 MEMB     62       POPC     H13A     HL       0.250000       1.00800           0
      8187 MEMB     62       POPC     H13B     HL       0.250000       1.00800           0
      8188 MEMB     62       POPC     H13C     HL       0.250000       1.00800           0
      8189 MEMB     62       POPC     C14      CTL5    -0.350000       12.0110           0
      8190 MEMB     62       POPC     H14A     HL       0.250000       1.00800           0
      8191 MEMB     62       POPC     H14B     HL       0.250000       1.00800           0
      8192 MEMB     62       POPC     H14C     HL       0.250000       1.00800           0
      8193 MEMB     62       POPC     C15      CTL5    -0.350000       12.0110           0
      8194 MEMB     62       POPC     H15A     HL       0.250000       1.00800           0
      8195 MEMB     62       POPC     H15B     HL       0.250000       1.00800           0
      8196 MEMB     62       POPC     H15C     HL       0.250000       1.00800           0
      8197 MEMB     62       POPC     C11      CTL2    -0.800000E-01   12.0110           0
      8198 MEMB     62       POPC     H11A     HAL2     0.900000E-01   1.00800           0
      8199 MEMB     62       POPC     H11B     HAL2     0.900000E-01   1.00800           0
      8200 MEMB     62       POPC     P        PL        1.50000       30.9740           0
      8201 MEMB     62       POPC     O13      O2L     -0.780000       15.9994           0
      8202 MEMB     62       POPC     O14      O2L     -0.780000       15.9994           0
      8203 MEMB     62       POPC     O12      OSLP    -0.570000       15.9994           0
      8204 MEMB     62       POPC     O11      OSLP    -0.570000       15.9994           0
      8205 MEMB     62       POPC     C1       CTL2    -0.800000E-01   12.0110           0
      8206 MEMB     62       POPC     HA       HAL2     0.900000E-01   1.00800           0
      8207 MEMB     62       POPC     HB       HAL2     0.900000E-01   1.00800           0
      8208 MEMB     62       POPC     C2       CTL1     0.170000       12.0110           0
      8209 MEMB     62       POPC     HS       HAL1     0.900000E-01   1.00800           0
      8210 MEMB     62       POPC     O21      OSL     -0.490000       15.9994           0
      8211 MEMB     62       POPC     C21      CL       0.900000       12.0110           0
      8212 MEMB     62       POPC     O22      OBL     -0.630000       15.9994           0
      8213 MEMB     62       POPC     C22      CTL2    -0.220000       12.0110           0
      8214 MEMB     62       POPC     H2R      HAL2     0.900000E-01   1.00800           0
      8215 MEMB     62       POPC     H2S      HAL2     0.900000E-01   1.00800           0
      8216 MEMB     62       POPC     C3       CTL2     0.800000E-01   12.0110           0
      8217 MEMB     62       POPC     HX       HAL2     0.900000E-01   1.00800           0
      8218 MEMB     62       POPC     HY       HAL2     0.900000E-01   1.00800           0
      8219 MEMB     62       POPC     O31      OSL     -0.490000       15.9994           0
      8220 MEMB     62       POPC     C31      CL       0.900000       12.0110           0
      8221 MEMB     62       POPC     O32      OBL     -0.630000       15.9994           0
      8222 MEMB     62       POPC     C32      CTL2    -0.220000       12.0110           0
      8223 MEMB     62       POPC     H2X      HAL2     0.900000E-01   1.00800           0
      8224 MEMB     62       POPC     H2Y      HAL2     0.900000E-01   1.00800           0
      8225 MEMB     62       POPC     C23      CTL2    -0.180000       12.0110           0
      8226 MEMB     62       POPC     H3R      HAL2     0.900000E-01   1.00800           0
      8227 MEMB     62       POPC     H3S      HAL2     0.900000E-01   1.00800           0
      8228 MEMB     62       POPC     C24      CTL2    -0.180000       12.0110           0
      8229 MEMB     62       POPC     H4R      HAL2     0.900000E-01   1.00800           0
      8230 MEMB     62       POPC     H4S      HAL2     0.900000E-01   1.00800           0
      8231 MEMB     62       POPC     C25      CTL2    -0.180000       12.0110           0
      8232 MEMB     62       POPC     H5R      HAL2     0.900000E-01   1.00800           0
      8233 MEMB     62       POPC     H5S      HAL2     0.900000E-01   1.00800           0
      8234 MEMB     62       POPC     C26      CTL2    -0.180000       12.0110           0
      8235 MEMB     62       POPC     H6R      HAL2     0.900000E-01   1.00800           0
      8236 MEMB     62       POPC     H6S      HAL2     0.900000E-01   1.00800           0
      8237 MEMB     62       POPC     C27      CTL2    -0.180000       12.0110           0
      8238 MEMB     62       POPC     H7R      HAL2     0.900000E-01   1.00800           0
      8239 MEMB     62       POPC     H7S      HAL2     0.900000E-01   1.00800           0
      8240 MEMB     62       POPC     C28      CTL2    -0.180000       12.0110           0
      8241 MEMB     62       POPC     H8R      HAL2     0.900000E-01   1.00800           0
      8242 MEMB     62       POPC     H8S      HAL2     0.900000E-01   1.00800           0
      8243 MEMB     62       POPC     C29      CEL1    -0.150000       12.0110           0
      8244 MEMB     62       POPC     H91      HEL1     0.150000       1.00800           0
      8245 MEMB     62       POPC     C210     CEL1    -0.150000       12.0110           0
      8246 MEMB     62       POPC     H101     HEL1     0.150000       1.00800           0
      8247 MEMB     62       POPC     C211     CTL2    -0.180000       12.0110           0
      8248 MEMB     62       POPC     H11R     HAL2     0.900000E-01   1.00800           0
      8249 MEMB     62       POPC     H11S     HAL2     0.900000E-01   1.00800           0
      8250 MEMB     62       POPC     C212     CTL2    -0.180000       12.0110           0
      8251 MEMB     62       POPC     H12R     HAL2     0.900000E-01   1.00800           0
      8252 MEMB     62       POPC     H12S     HAL2     0.900000E-01   1.00800           0
      8253 MEMB     62       POPC     C213     CTL2    -0.180000       12.0110           0
      8254 MEMB     62       POPC     H13R     HAL2     0.900000E-01   1.00800           0
      8255 MEMB     62       POPC     H13S     HAL2     0.900000E-01   1.00800           0
      8256 MEMB     62       POPC     C214     CTL2    -0.180000       12.0110           0
      8257 MEMB     62       POPC     H14R     HAL2     0.900000E-01   1.00800           0
      8258 MEMB     62       POPC     H14S     HAL2     0.900000E-01   1.00800           0
      8259 MEMB     62       POPC     C215     CTL2    -0.180000       12.0110           0
      8260 MEMB     62       POPC     H15R     HAL2     0.900000E-01   1.00800           0
      8261 MEMB     62       POPC     H15S     HAL2     0.900000E-01   1.00800           0
      8262 MEMB     62       POPC     C216     CTL2    -0.180000       12.0110           0
      8263 MEMB     62       POPC     H16R     HAL2     0.900000E-01   1.00800           0
      8264 MEMB     62       POPC     H16S     HAL2     0.900000E-01   1.00800           0
      8265 MEMB     62       POPC     C217     CTL2    -0.180000       12.0110           0
      8266 MEMB     62       POPC     H17R     HAL2     0.900000E-01   1.00800           0
      8267 MEMB     62       POPC     H17S     HAL2     0.900000E-01   1.00800           0
      8268 MEMB     62       POPC     C218     CTL3    -0.270000       12.0110           0
      8269 MEMB     62       POPC     H18R     HAL3     0.900000E-01   1.00800           0
      8270 MEMB     62       POPC     H18S     HAL3     0.900000E-01   1.00800           0
      8271 MEMB     62       POPC     H18T     HAL3     0.900000E-01   1.00800           0
      8272 MEMB     62       POPC     C33      CTL2    -0.180000       12.0110           0
      8273 MEMB     62       POPC     H3X      HAL2     0.900000E-01   1.00800           0
      8274 MEMB     62       POPC     H3Y      HAL2     0.900000E-01   1.00800           0
      8275 MEMB     62       POPC     C34      CTL2    -0.180000       12.0110           0
      8276 MEMB     62       POPC     H4X      HAL2     0.900000E-01   1.00800           0
      8277 MEMB     62       POPC     H4Y      HAL2     0.900000E-01   1.00800           0
      8278 MEMB     62       POPC     C35      CTL2    -0.180000       12.0110           0
      8279 MEMB     62       POPC     H5X      HAL2     0.900000E-01   1.00800           0
      8280 MEMB     62       POPC     H5Y      HAL2     0.900000E-01   1.00800           0
      8281 MEMB     62       POPC     C36      CTL2    -0.180000       12.0110           0
      8282 MEMB     62       POPC     H6X      HAL2     0.900000E-01   1.00800           0
      8283 MEMB     62       POPC     H6Y      HAL2     0.900000E-01   1.00800           0
      8284 MEMB     62       POPC     C37      CTL2    -0.180000       12.0110           0
      8285 MEMB     62       POPC     H7X      HAL2     0.900000E-01   1.00800           0
      8286 MEMB     62       POPC     H7Y      HAL2     0.900000E-01   1.00800           0
      8287 MEMB     62       POPC     C38      CTL2    -0.180000       12.0110           0
      8288 MEMB     62       POPC     H8X      HAL2     0.900000E-01   1.00800           0
      8289 MEMB     62       POPC     H8Y      HAL2     0.900000E-01   1.00800           0
      8290 MEMB     62       POPC     C39      CTL2    -0.180000       12.0110           0
      8291 MEMB     62       POPC     H9X      HAL2     0.900000E-01   1.00800           0
      8292 MEMB     62       POPC     H9Y      HAL2     0.900000E-01   1.00800           0
      8293 MEMB     62       POPC     C310     CTL2    -0.180000       12.0110           0
      8294 MEMB     62       POPC     H10X     HAL2     0.900000E-01   1.00800           0
      8295 MEMB     62       POPC     H10Y     HAL2     0.900000E-01   1.00800           0
      8296 MEMB     62       POPC     C311     CTL2    -0.180000       12.0110           0
      8297 MEMB     62       POPC     H11X     HAL2     0.900000E-01   1.00800           0
      8298 MEMB     62       POPC     H11Y     HAL2     0.900000E-01   1.00800           0
      8299 MEMB     62       POPC     C312     CTL2    -0.180000       12.0110           0
      8300 MEMB     62       POPC     H12X     HAL2     0.900000E-01   1.00800           0
      8301 MEMB     62       POPC     H12Y     HAL2     0.900000E-01   1.00800           0
      8302 MEMB     62       POPC     C313     CTL2    -0.180000       12.0110           0
      8303 MEMB     62       POPC     H13X     HAL2     0.900000E-01   1.00800           0
      8304 MEMB     62       POPC     H13Y     HAL2     0.900000E-01   1.00800           0
      8305 MEMB     62       POPC     C314     CTL2    -0.180000       12.0110           0
      8306 MEMB     62       POPC     H14X     HAL2     0.900000E-01   1.00800           0
      8307 MEMB     62       POPC     H14Y     HAL2     0.900000E-01   1.00800           0
      8308 MEMB     62       POPC     C315     CTL2    -0.180000       12.0110           0
      8309 MEMB     62       POPC     H15X     HAL2     0.900000E-01   1.00800           0
      8310 MEMB     62       POPC     H15Y     HAL2     0.900000E-01   1.00800           0
      8311 MEMB     62       POPC     C316     CTL3    -0.270000       12.0110           0
      8312 MEMB     62       POPC     H16X     HAL3     0.900000E-01   1.00800           0
      8313 MEMB     62       POPC     H16Y     HAL3     0.900000E-01   1.00800           0
      8314 MEMB     62       POPC     H16Z     HAL3     0.900000E-01   1.00800           0
      8315 MEMB     63       POPC     N        NTL     -0.600000       14.0070           0
      8316 MEMB     63       POPC     C12      CTL2    -0.100000       12.0110           0
      8317 MEMB     63       POPC     H12A     HL       0.250000       1.00800           0
      8318 MEMB     63       POPC     H12B     HL       0.250000       1.00800           0
      8319 MEMB     63       POPC     C13      CTL5    -0.350000       12.0110           0
      8320 MEMB     63       POPC     H13A     HL       0.250000       1.00800           0
      8321 MEMB     63       POPC     H13B     HL       0.250000       1.00800           0
      8322 MEMB     63       POPC     H13C     HL       0.250000       1.00800           0
      8323 MEMB     63       POPC     C14      CTL5    -0.350000       12.0110           0
      8324 MEMB     63       POPC     H14A     HL       0.250000       1.00800           0
      8325 MEMB     63       POPC     H14B     HL       0.250000       1.00800           0
      8326 MEMB     63       POPC     H14C     HL       0.250000       1.00800           0
      8327 MEMB     63       POPC     C15      CTL5    -0.350000       12.0110           0
      8328 MEMB     63       POPC     H15A     HL       0.250000       1.00800           0
      8329 MEMB     63       POPC     H15B     HL       0.250000       1.00800           0
      8330 MEMB     63       POPC     H15C     HL       0.250000       1.00800           0
      8331 MEMB     63       POPC     C11      CTL2    -0.800000E-01   12.0110           0
      8332 MEMB     63       POPC     H11A     HAL2     0.900000E-01   1.00800           0
      8333 MEMB     63       POPC     H11B     HAL2     0.900000E-01   1.00800           0
      8334 MEMB     63       POPC     P        PL        1.50000       30.9740           0
      8335 MEMB     63       POPC     O13      O2L     -0.780000       15.9994           0
      8336 MEMB     63       POPC     O14      O2L     -0.780000       15.9994           0
      8337 MEMB     63       POPC     O12      OSLP    -0.570000       15.9994           0
      8338 MEMB     63       POPC     O11      OSLP    -0.570000       15.9994           0
      8339 MEMB     63       POPC     C1       CTL2    -0.800000E-01   12.0110           0
      8340 MEMB     63       POPC     HA       HAL2     0.900000E-01   1.00800           0
      8341 MEMB     63       POPC     HB       HAL2     0.900000E-01   1.00800           0
      8342 MEMB     63       POPC     C2       CTL1     0.170000       12.0110           0
      8343 MEMB     63       POPC     HS       HAL1     0.900000E-01   1.00800           0
      8344 MEMB     63       POPC     O21      OSL     -0.490000       15.9994           0
      8345 MEMB     63       POPC     C21      CL       0.900000       12.0110           0
      8346 MEMB     63       POPC     O22      OBL     -0.630000       15.9994           0
      8347 MEMB     63       POPC     C22      CTL2    -0.220000       12.0110           0
      8348 MEMB     63       POPC     H2R      HAL2     0.900000E-01   1.00800           0
      8349 MEMB     63       POPC     H2S      HAL2     0.900000E-01   1.00800           0
      8350 MEMB     63       POPC     C3       CTL2     0.800000E-01   12.0110           0
      8351 MEMB     63       POPC     HX       HAL2     0.900000E-01   1.00800           0
      8352 MEMB     63       POPC     HY       HAL2     0.900000E-01   1.00800           0
      8353 MEMB     63       POPC     O31      OSL     -0.490000       15.9994           0
      8354 MEMB     63       POPC     C31      CL       0.900000       12.0110           0
      8355 MEMB     63       POPC     O32      OBL     -0.630000       15.9994           0
      8356 MEMB     63       POPC     C32      CTL2    -0.220000       12.0110           0
      8357 MEMB     63       POPC     H2X      HAL2     0.900000E-01   1.00800           0
      8358 MEMB     63       POPC     H2Y      HAL2     0.900000E-01   1.00800           0
      8359 MEMB     63       POPC     C23      CTL2    -0.180000       12.0110           0
      8360 MEMB     63       POPC     H3R      HAL2     0.900000E-01   1.00800           0
      8361 MEMB     63       POPC     H3S      HAL2     0.900000E-01   1.00800           0
      8362 MEMB     63       POPC     C24      CTL2    -0.180000       12.0110           0
      8363 MEMB     63       POPC     H4R      HAL2     0.900000E-01   1.00800           0
      8364 MEMB     63       POPC     H4S      HAL2     0.900000E-01   1.00800           0
      8365 MEMB     63       POPC     C25      CTL2    -0.180000       12.0110           0
      8366 MEMB     63       POPC     H5R      HAL2     0.900000E-01   1.00800           0
      8367 MEMB     63       POPC     H5S      HAL2     0.900000E-01   1.00800           0
      8368 MEMB     63       POPC     C26      CTL2    -0.180000       12.0110           0
      8369 MEMB     63       POPC     H6R      HAL2     0.900000E-01   1.00800           0
      8370 MEMB     63       POPC     H6S      HAL2     0.900000E-01   1.00800           0
      8371 MEMB     63       POPC     C27      CTL2    -0.180000       12.0110           0
      8372 MEMB     63       POPC     H7R      HAL2     0.900000E-01   1.00800           0
      8373 MEMB     63       POPC     H7S      HAL2     0.900000E-01   1.00800           0
      8374 MEMB     63       POPC     C28      CTL2    -0.180000       12.0110           0
      8375 MEMB     63       POPC     H8R      HAL2     0.900000E-01   1.00800           0
      8376 MEMB     63       POPC     H8S      HAL2     0.900000E-01   1.00800           0
      8377 MEMB     63       POPC     C29      CEL1    -0.150000       12.0110           0
      8378 MEMB     63       POPC     H91      HEL1     0.150000       1.00800           0
      8379 MEMB     63       POPC     C210     CEL1    -0.150000       12.0110           0
      8380 MEMB     63       POPC     H101     HEL1     0.150000       1.00800           0
      8381 MEMB     63       POPC     C211     CTL2    -0.180000       12.0110           0
      8382 MEMB     63       POPC     H11R     HAL2     0.900000E-01   1.00800           0
      8383 MEMB     63       POPC     H11S     HAL2     0.900000E-01   1.00800           0
      8384 MEMB     63       POPC     C212     CTL2    -0.180000       12.0110           0
      8385 MEMB     63       POPC     H12R     HAL2     0.900000E-01   1.00800           0
      8386 MEMB     63       POPC     H12S     HAL2     0.900000E-01   1.00800           0
      8387 MEMB     63       POPC     C213     CTL2    -0.180000       12.0110           0
      8388 MEMB     63       POPC     H13R     HAL2     0.900000E-01   1.00800           0
      8389 MEMB     63       POPC     H13S     HAL2     0.900000E-01   1.00800           0
      8390 MEMB     63       POPC     C214     CTL2    -0.180000       12.0110           0
      8391 MEMB     63       POPC     H14R     HAL2     0.900000E-01   1.00800           0
      8392 MEMB     63       POPC     H14S     HAL2     0.900000E-01   1.00800           0
      8393 MEMB     63       POPC     C215     CTL2    -0.180000       12.0110           0
      8394 MEMB     63       POPC     H15R     HAL2     0.900000E-01   1.00800           0
      8395 MEMB     63       POPC     H15S     HAL2     0.900000E-01   1.00800           0
      8396 MEMB     63       POPC     C216     CTL2    -0.180000       12.0110           0
      8397 MEMB     63       POPC     H16R     HAL2     0.900000E-01   1.00800           0
      8398 MEMB     63       POPC     H16S     HAL2     0.900000E-01   1.00800           0
      8399 MEMB     63       POPC     C217     CTL2    -0.180000       12.0110           0
      8400 MEMB     63       POPC     H17R     HAL2     0.900000E-01   1.00800           0
      8401 MEMB     63       POPC     H17S     HAL2     0.900000E-01   1.00800           0
      8402 MEMB     63       POPC     C218     CTL3    -0.270000       12.0110           0
      8403 MEMB     63       POPC     H18R     HAL3     0.900000E-01   1.00800           0
      8404 MEMB     63       POPC     H18S     HAL3     0.900000E-01   1.00800           0
      8405 MEMB     63       POPC     H18T     HAL3     0.900000E-01   1.00800           0
      8406 MEMB     63       POPC     C33      CTL2    -0.180000       12.0110           0
      8407 MEMB     63       POPC     H3X      HAL2     0.900000E-01   1.00800           0
      8408 MEMB     63       POPC     H3Y      HAL2     0.900000E-01   1.00800           0
      8409 MEMB     63       POPC     C34      CTL2    -0.180000       12.0110           0
      8410 MEMB     63       POPC     H4X      HAL2     0.900000E-01   1.00800           0
      8411 MEMB     63       POPC     H4Y      HAL2     0.900000E-01   1.00800           0
      8412 MEMB     63       POPC     C35      CTL2    -0.180000       12.0110           0
      8413 MEMB     63       POPC     H5X      HAL2     0.900000E-01   1.00800           0
      8414 MEMB     63       POPC     H5Y      HAL2     0.900000E-01   1.00800           0
      8415 MEMB     63       POPC     C36      CTL2    -0.180000       12.0110           0
      8416 MEMB     63       POPC     H6X      HAL2     0.900000E-01   1.00800           0
      8417 MEMB     63       POPC     H6Y      HAL2     0.900000E-01   1.00800           0
      8418 MEMB     63       POPC     C37      CTL2    -0.180000       12.0110           0
      8419 MEMB     63       POPC     H7X      HAL2     0.900000E-01   1.00800           0
      8420 MEMB     63       POPC     H7Y      HAL2     0.900000E-01   1.00800           0
      8421 MEMB     63       POPC     C38      CTL2    -0.180000       12.0110           0
      8422 MEMB     63       POPC     H8X      HAL2     0.900000E-01   1.00800           0
      8423 MEMB     63       POPC     H8Y      HAL2     0.900000E-01   1.00800           0
      8424 MEMB     63       POPC     C39      CTL2    -0.180000       12.0110           0
      8425 MEMB     63       POPC     H9X      HAL2     0.900000E-01   1.00800           0
      8426 MEMB     63       POPC     H9Y      HAL2     0.900000E-01   1.00800           0
      8427 MEMB     63       POPC     C310     CTL2    -0.180000       12.0110           0
      8428 MEMB     63       POPC     H10X     HAL2     0.900000E-01   1.00800           0
      8429 MEMB     63       POPC     H10Y     HAL2     0.900000E-01   1.00800           0
      8430 MEMB     63       POPC     C311     CTL2    -0.180000       12.0110           0
      8431 MEMB     63       POPC     H11X     HAL2     0.900000E-01   1.00800           0
      8432 MEMB     63       POPC     H11Y     HAL2     0.900000E-01   1.00800           0
      8433 MEMB     63       POPC     C312     CTL2    -0.180000       12.0110           0
      8434 MEMB     63       POPC     H12X     HAL2     0.900000E-01   1.00800           0
      8435 MEMB     63       POPC     H12Y     HAL2     0.900000E-01   1.00800           0
      8436 MEMB     63       POPC     C313     CTL2    -0.180000       12.0110           0
      8437 MEMB     63       POPC     H13X     HAL2     0.900000E-01   1.00800           0
      8438 MEMB     63       POPC     H13Y     HAL2     0.900000E-01   1.00800           0
      8439 MEMB     63       POPC     C314     CTL2    -0.180000       12.0110           0
      8440 MEMB     63       POPC     H14X     HAL2     0.900000E-01   1.00800           0
      8441 MEMB     63       POPC     H14Y     HAL2     0.900000E-01   1.00800           0
      8442 MEMB     63       POPC     C315     CTL2    -0.180000       12.0110           0
      8443 MEMB     63       POPC     H15X     HAL2     0.900000E-01   1.00800           0
      8444 MEMB     63       POPC     H15Y     HAL2     0.900000E-01   1.00800           0
      8445 MEMB     63       POPC     C316     CTL3    -0.270000       12.0110           0
      8446 MEMB     63       POPC     H16X     HAL3     0.900000E-01   1.00800           0
      8447 MEMB     63       POPC     H16Y     HAL3     0.900000E-01   1.00800           0
      8448 MEMB     63       POPC     H16Z     HAL3     0.900000E-01   1.00800           0
      8449 MEMB     64       POPC     N        NTL     -0.600000       14.0070           0
      8450 MEMB     64       POPC     C12      CTL2    -0.100000       12.0110           0
      8451 MEMB     64       POPC     H12A     HL       0.250000       1.00800           0
      8452 MEMB     64       POPC     H12B     HL       0.250000       1.00800           0
      8453 MEMB     64       POPC     C13      CTL5    -0.350000       12.0110           0
      8454 MEMB     64       POPC     H13A     HL       0.250000       1.00800           0
      8455 MEMB     64       POPC     H13B     HL       0.250000       1.00800           0
      8456 MEMB     64       POPC     H13C     HL       0.250000       1.00800           0
      8457 MEMB     64       POPC     C14      CTL5    -0.350000       12.0110           0
      8458 MEMB     64       POPC     H14A     HL       0.250000       1.00800           0
      8459 MEMB     64       POPC     H14B     HL       0.250000       1.00800           0
      8460 MEMB     64       POPC     H14C     HL       0.250000       1.00800           0
      8461 MEMB     64       POPC     C15      CTL5    -0.350000       12.0110           0
      8462 MEMB     64       POPC     H15A     HL       0.250000       1.00800           0
      8463 MEMB     64       POPC     H15B     HL       0.250000       1.00800           0
      8464 MEMB     64       POPC     H15C     HL       0.250000       1.00800           0
      8465 MEMB     64       POPC     C11      CTL2    -0.800000E-01   12.0110           0
      8466 MEMB     64       POPC     H11A     HAL2     0.900000E-01   1.00800           0
      8467 MEMB     64       POPC     H11B     HAL2     0.900000E-01   1.00800           0
      8468 MEMB     64       POPC     P        PL        1.50000       30.9740           0
      8469 MEMB     64       POPC     O13      O2L     -0.780000       15.9994           0
      8470 MEMB     64       POPC     O14      O2L     -0.780000       15.9994           0
      8471 MEMB     64       POPC     O12      OSLP    -0.570000       15.9994           0
      8472 MEMB     64       POPC     O11      OSLP    -0.570000       15.9994           0
      8473 MEMB     64       POPC     C1       CTL2    -0.800000E-01   12.0110           0
      8474 MEMB     64       POPC     HA       HAL2     0.900000E-01   1.00800           0
      8475 MEMB     64       POPC     HB       HAL2     0.900000E-01   1.00800           0
      8476 MEMB     64       POPC     C2       CTL1     0.170000       12.0110           0
      8477 MEMB     64       POPC     HS       HAL1     0.900000E-01   1.00800           0
      8478 MEMB     64       POPC     O21      OSL     -0.490000       15.9994           0
      8479 MEMB     64       POPC     C21      CL       0.900000       12.0110           0
      8480 MEMB     64       POPC     O22      OBL     -0.630000       15.9994           0
      8481 MEMB     64       POPC     C22      CTL2    -0.220000       12.0110           0
      8482 MEMB     64       POPC     H2R      HAL2     0.900000E-01   1.00800           0
      8483 MEMB     64       POPC     H2S      HAL2     0.900000E-01   1.00800           0
      8484 MEMB     64       POPC     C3       CTL2     0.800000E-01   12.0110           0
      8485 MEMB     64       POPC     HX       HAL2     0.900000E-01   1.00800           0
      8486 MEMB     64       POPC     HY       HAL2     0.900000E-01   1.00800           0
      8487 MEMB     64       POPC     O31      OSL     -0.490000       15.9994           0
      8488 MEMB     64       POPC     C31      CL       0.900000       12.0110           0
      8489 MEMB     64       POPC     O32      OBL     -0.630000       15.9994           0
      8490 MEMB     64       POPC     C32      CTL2    -0.220000       12.0110           0
      8491 MEMB     64       POPC     H2X      HAL2     0.900000E-01   1.00800           0
      8492 MEMB     64       POPC     H2Y      HAL2     0.900000E-01   1.00800           0
      8493 MEMB     64       POPC     C23      CTL2    -0.180000       12.0110           0
      8494 MEMB     64       POPC     H3R      HAL2     0.900000E-01   1.00800           0
      8495 MEMB     64       POPC     H3S      HAL2     0.900000E-01   1.00800           0
      8496 MEMB     64       POPC     C24      CTL2    -0.180000       12.0110           0
      8497 MEMB     64       POPC     H4R      HAL2     0.900000E-01   1.00800           0
      8498 MEMB     64       POPC     H4S      HAL2     0.900000E-01   1.00800           0
      8499 MEMB     64       POPC     C25      CTL2    -0.180000       12.0110           0
      8500 MEMB     64       POPC     H5R      HAL2     0.900000E-01   1.00800           0
      8501 MEMB     64       POPC     H5S      HAL2     0.900000E-01   1.00800           0
      8502 MEMB     64       POPC     C26      CTL2    -0.180000       12.0110           0
      8503 MEMB     64       POPC     H6R      HAL2     0.900000E-01   1.00800           0
      8504 MEMB     64       POPC     H6S      HAL2     0.900000E-01   1.00800           0
      8505 MEMB     64       POPC     C27      CTL2    -0.180000       12.0110           0
      8506 MEMB     64       POPC     H7R      HAL2     0.900000E-01   1.00800           0
      8507 MEMB     64       POPC     H7S      HAL2     0.900000E-01   1.00800           0
      8508 MEMB     64       POPC     C28      CTL2    -0.180000       12.0110           0
      8509 MEMB     64       POPC     H8R      HAL2     0.900000E-01   1.00800           0
      8510 MEMB     64       POPC     H8S      HAL2     0.900000E-01   1.00800           0
      8511 MEMB     64       POPC     C29      CEL1    -0.150000       12.0110           0
      8512 MEMB     64       POPC     H91      HEL1     0.150000       1.00800           0
      8513 MEMB     64       POPC     C210     CEL1    -0.150000       12.0110           0
      8514 MEMB     64       POPC     H101     HEL1     0.150000       1.00800           0
      8515 MEMB     64       POPC     C211     CTL2    -0.180000       12.0110           0
      8516 MEMB     64       POPC     H11R     HAL2     0.900000E-01   1.00800           0
      8517 MEMB     64       POPC     H11S     HAL2     0.900000E-01   1.00800           0
      8518 MEMB     64       POPC     C212     CTL2    -0.180000       12.0110           0
      8519 MEMB     64       POPC     H12R     HAL2     0.900000E-01   1.00800           0
      8520 MEMB     64       POPC     H12S     HAL2     0.900000E-01   1.00800           0
      8521 MEMB     64       POPC     C213     CTL2    -0.180000       12.0110           0
      8522 MEMB     64       POPC     H13R     HAL2     0.900000E-01   1.00800           0
      8523 MEMB     64       POPC     H13S     HAL2     0.900000E-01   1.00800           0
      8524 MEMB     64       POPC     C214     CTL2    -0.180000       12.0110           0
      8525 MEMB     64       POPC     H14R     HAL2     0.900000E-01   1.00800           0
      8526 MEMB     64       POPC     H14S     HAL2     0.900000E-01   1.00800           0
      8527 MEMB     64       POPC     C215     CTL2    -0.180000       12.0110           0
      8528 MEMB     64       POPC     H15R     HAL2     0.900000E-01   1.00800           0
      8529 MEMB     64       POPC     H15S     HAL2     0.900000E-01   1.00800           0
      8530 MEMB     64       POPC     C216     CTL2    -0.180000       12.0110           0
      8531 MEMB     64       POPC     H16R     HAL2     0.900000E-01   1.00800           0
      8532 MEMB     64       POPC     H16S     HAL2     0.900000E-01   1.00800           0
      8533 MEMB     64       POPC     C217     CTL2    -0.180000       12.0110           0
      8534 MEMB     64       POPC     H17R     HAL2     0.900000E-01   1.00800           0
      8535 MEMB     64       POPC     H17S     HAL2     0.900000E-01   1.00800           0
      8536 MEMB     64       POPC     C218     CTL3    -0.270000       12.0110           0
      8537 MEMB     64       POPC     H18R     HAL3     0.900000E-01   1.00800           0
      8538 MEMB     64       POPC     H18S     HAL3     0.900000E-01   1.00800           0
      8539 MEMB     64       POPC     H18T     HAL3     0.900000E-01   1.00800           0
      8540 MEMB     64       POPC     C33      CTL2    -0.180000       12.0110           0
      8541 MEMB     64       POPC     H3X      HAL2     0.900000E-01   1.00800           0
      8542 MEMB     64       POPC     H3Y      HAL2     0.900000E-01   1.00800           0
      8543 MEMB     64       POPC     C34      CTL2    -0.180000       12.0110           0
      8544 MEMB     64       POPC     H4X      HAL2     0.900000E-01   1.00800           0
      8545 MEMB     64       POPC     H4Y      HAL2     0.900000E-01   1.00800           0
      8546 MEMB     64       POPC     C35      CTL2    -0.180000       12.0110           0
      8547 MEMB     64       POPC     H5X      HAL2     0.900000E-01   1.00800           0
      8548 MEMB     64       POPC     H5Y      HAL2     0.900000E-01   1.00800           0
      8549 MEMB     64       POPC     C36      CTL2    -0.180000       12.0110           0
      8550 MEMB     64       POPC     H6X      HAL2     0.900000E-01   1.00800           0
      8551 MEMB     64       POPC     H6Y      HAL2     0.900000E-01   1.00800           0
      8552 MEMB     64       POPC     C37      CTL2    -0.180000       12.0110           0
      8553 MEMB     64       POPC     H7X      HAL2     0.900000E-01   1.00800           0
      8554 MEMB     64       POPC     H7Y      HAL2     0.900000E-01   1.00800           0
      8555 MEMB     64       POPC     C38      CTL2    -0.180000       12.0110           0
      8556 MEMB     64       POPC     H8X      HAL2     0.900000E-01   1.00800           0
      8557 MEMB     64       POPC     H8Y      HAL2     0.900000E-01   1.00800           0
      8558 MEMB     64       POPC     C39      CTL2    -0.180000       12.0110           0
      8559 MEMB     64       POPC     H9X      HAL2     0.900000E-01   1.00800           0
      8560 MEMB     64       POPC     H9Y      HAL2     0.900000E-01   1.00800           0
      8561 MEMB     64       POPC     C310     CTL2    -0.180000       12.0110           0
      8562 MEMB     64       POPC     H10X     HAL2     0.900000E-01   1.00800           0
      8563 MEMB     64       POPC     H10Y     HAL2     0.900000E-01   1.00800           0
      8564 MEMB     64       POPC     C311     CTL2    -0.180000       12.0110           0
      8565 MEMB     64       POPC     H11X     HAL2     0.900000E-01   1.00800           0
      8566 MEMB     64       POPC     H11Y     HAL2     0.900000E-01   1.00800           0
      8567 MEMB     64       POPC     C312     CTL2    -0.180000       12.0110           0
      8568 MEMB     64       POPC     H12X     HAL2     0.900000E-01   1.00800           0
      8569 MEMB     64       POPC     H12Y     HAL2     0.900000E-01   1.00800           0
      8570 MEMB     64       POPC     C313     CTL2    -0.180000       12.0110           0
      8571 MEMB     64       POPC     H13X     HAL2     0.900000E-01   1.00800           0
      8572 MEMB     64       POPC     H13Y     HAL2     0.900000E-01   1.00800           0
      8573 MEMB     64       POPC     C314     CTL2    -0.180000       12.0110           0
      8574 MEMB     64       POPC     H14X     HAL2     0.900000E-01   1.00800           0
      8575 MEMB     64       POPC     H14Y     HAL2     0.900000E-01   1.00800           0
      8576 MEMB     64       POPC     C315     CTL2    -0.180000       12.0110           0
      8577 MEMB     64       POPC     H15X     HAL2     0.900000E-01   1.00800           0
      8578 MEMB     64       POPC     H15Y     HAL2     0.900000E-01   1.00800           0
      8579 MEMB     64       POPC     C316     CTL3    -0.270000       12.0110           0
      8580 MEMB     64       POPC     H16X     HAL3     0.900000E-01   1.00800           0
      8581 MEMB     64       POPC     H16Y     HAL3     0.900000E-01   1.00800           0
      8582 MEMB     64       POPC     H16Z     HAL3     0.900000E-01   1.00800           0
      8583 MEMB     65       POPC     N        NTL     -0.600000       14.0070           0
      8584 MEMB     65       POPC     C12      CTL2    -0.100000       12.0110           0
      8585 MEMB     65       POPC     H12A     HL       0.250000       1.00800           0
      8586 MEMB     65       POPC     H12B     HL       0.250000       1.00800           0
      8587 MEMB     65       POPC     C13      CTL5    -0.350000       12.0110           0
      8588 MEMB     65       POPC     H13A     HL       0.250000       1.00800           0
      8589 MEMB     65       POPC     H13B     HL       0.250000       1.00800           0
      8590 MEMB     65       POPC     H13C     HL       0.250000       1.00800           0
      8591 MEMB     65       POPC     C14      CTL5    -0.350000       12.0110           0
      8592 MEMB     65       POPC     H14A     HL       0.250000       1.00800           0
      8593 MEMB     65       POPC     H14B     HL       0.250000       1.00800           0
      8594 MEMB     65       POPC     H14C     HL       0.250000       1.00800           0
      8595 MEMB     65       POPC     C15      CTL5    -0.350000       12.0110           0
      8596 MEMB     65       POPC     H15A     HL       0.250000       1.00800           0
      8597 MEMB     65       POPC     H15B     HL       0.250000       1.00800           0
      8598 MEMB     65       POPC     H15C     HL       0.250000       1.00800           0
      8599 MEMB     65       POPC     C11      CTL2    -0.800000E-01   12.0110           0
      8600 MEMB     65       POPC     H11A     HAL2     0.900000E-01   1.00800           0
      8601 MEMB     65       POPC     H11B     HAL2     0.900000E-01   1.00800           0
      8602 MEMB     65       POPC     P        PL        1.50000       30.9740           0
      8603 MEMB     65       POPC     O13      O2L     -0.780000       15.9994           0
      8604 MEMB     65       POPC     O14      O2L     -0.780000       15.9994           0
      8605 MEMB     65       POPC     O12      OSLP    -0.570000       15.9994           0
      8606 MEMB     65       POPC     O11      OSLP    -0.570000       15.9994           0
      8607 MEMB     65       POPC     C1       CTL2    -0.800000E-01   12.0110           0
      8608 MEMB     65       POPC     HA       HAL2     0.900000E-01   1.00800           0
      8609 MEMB     65       POPC     HB       HAL2     0.900000E-01   1.00800           0
      8610 MEMB     65       POPC     C2       CTL1     0.170000       12.0110           0
      8611 MEMB     65       POPC     HS       HAL1     0.900000E-01   1.00800           0
      8612 MEMB     65       POPC     O21      OSL     -0.490000       15.9994           0
      8613 MEMB     65       POPC     C21      CL       0.900000       12.0110           0
      8614 MEMB     65       POPC     O22      OBL     -0.630000       15.9994           0
      8615 MEMB     65       POPC     C22      CTL2    -0.220000       12.0110           0
      8616 MEMB     65       POPC     H2R      HAL2     0.900000E-01   1.00800           0
      8617 MEMB     65       POPC     H2S      HAL2     0.900000E-01   1.00800           0
      8618 MEMB     65       POPC     C3       CTL2     0.800000E-01   12.0110           0
      8619 MEMB     65       POPC     HX       HAL2     0.900000E-01   1.00800           0
      8620 MEMB     65       POPC     HY       HAL2     0.900000E-01   1.00800           0
      8621 MEMB     65       POPC     O31      OSL     -0.490000       15.9994           0
      8622 MEMB     65       POPC     C31      CL       0.900000       12.0110           0
      8623 MEMB     65       POPC     O32      OBL     -0.630000       15.9994           0
      8624 MEMB     65       POPC     C32      CTL2    -0.220000       12.0110           0
      8625 MEMB     65       POPC     H2X      HAL2     0.900000E-01   1.00800           0
      8626 MEMB     65       POPC     H2Y      HAL2     0.900000E-01   1.00800           0
      8627 MEMB     65       POPC     C23      CTL2    -0.180000       12.0110           0
      8628 MEMB     65       POPC     H3R      HAL2     0.900000E-01   1.00800           0
      8629 MEMB     65       POPC     H3S      HAL2     0.900000E-01   1.00800           0
      8630 MEMB     65       POPC     C24      CTL2    -0.180000       12.0110           0
      8631 MEMB     65       POPC     H4R      HAL2     0.900000E-01   1.00800           0
      8632 MEMB     65       POPC     H4S      HAL2     0.900000E-01   1.00800           0
      8633 MEMB     65       POPC     C25      CTL2    -0.180000       12.0110           0
      8634 MEMB     65       POPC     H5R      HAL2     0.900000E-01   1.00800           0
      8635 MEMB     65       POPC     H5S      HAL2     0.900000E-01   1.00800           0
      8636 MEMB     65       POPC     C26      CTL2    -0.180000       12.0110           0
      8637 MEMB     65       POPC     H6R      HAL2     0.900000E-01   1.00800           0
      8638 MEMB     65       POPC     H6S      HAL2     0.900000E-01   1.00800           0
      8639 MEMB     65       POPC     C27      CTL2    -0.180000       12.0110           0
      8640 MEMB     65       POPC     H7R      HAL2     0.900000E-01   1.00800           0
      8641 MEMB     65       POPC     H7S      HAL2     0.900000E-01   1.00800           0
      8642 MEMB     65       POPC     C28      CTL2    -0.180000       12.0110           0
      8643 MEMB     65       POPC     H8R      HAL2     0.900000E-01   1.00800           0
      8644 MEMB     65       POPC     H8S      HAL2     0.900000E-01   1.00800           0
      8645 MEMB     65       POPC     C29      CEL1    -0.150000       12.0110           0
      8646 MEMB     65       POPC     H91      HEL1     0.150000       1.00800           0
      8647 MEMB     65       POPC     C210     CEL1    -0.150000       12.0110           0
      8648 MEMB     65       POPC     H101     HEL1     0.150000       1.00800           0
      8649 MEMB     65       POPC     C211     CTL2    -0.180000       12.0110           0
      8650 MEMB     65       POPC     H11R     HAL2     0.900000E-01   1.00800           0
      8651 MEMB     65       POPC     H11S     HAL2     0.900000E-01   1.00800           0
      8652 MEMB     65       POPC     C212     CTL2    -0.180000       12.0110           0
      8653 MEMB     65       POPC     H12R     HAL2     0.900000E-01   1.00800           0
      8654 MEMB     65       POPC     H12S     HAL2     0.900000E-01   1.00800           0
      8655 MEMB     65       POPC     C213     CTL2    -0.180000       12.0110           0
      8656 MEMB     65       POPC     H13R     HAL2     0.900000E-01   1.00800           0
      8657 MEMB     65       POPC     H13S     HAL2     0.900000E-01   1.00800           0
      8658 MEMB     65       POPC     C214     CTL2    -0.180000       12.0110           0
      8659 MEMB     65       POPC     H14R     HAL2     0.900000E-01   1.00800           0
      8660 MEMB     65       POPC     H14S     HAL2     0.900000E-01   1.00800           0
      8661 MEMB     65       POPC     C215     CTL2    -0.180000       12.0110           0
      8662 MEMB     65       POPC     H15R     HAL2     0.900000E-01   1.00800           0
      8663 MEMB     65       POPC     H15S     HAL2     0.900000E-01   1.00800           0
      8664 MEMB     65       POPC     C216     CTL2    -0.180000       12.0110           0
      8665 MEMB     65       POPC     H16R     HAL2     0.900000E-01   1.00800           0
      8666 MEMB     65       POPC     H16S     HAL2     0.900000E-01   1.00800           0
      8667 MEMB     65       POPC     C217     CTL2    -0.180000       12.0110           0
      8668 MEMB     65       POPC     H17R     HAL2     0.900000E-01   1.00800           0
      8669 MEMB     65       POPC     H17S     HAL2     0.900000E-01   1.00800           0
      8670 MEMB     65       POPC     C218     CTL3    -0.270000       12.0110           0
      8671 MEMB     65       POPC     H18R     HAL3     0.900000E-01   1.00800           0
      8672 MEMB     65       POPC     H18S     HAL3     0.900000E-01   1.00800           0
      8673 MEMB     65       POPC     H18T     HAL3     0.900000E-01   1.00800           0
      8674 MEMB     65       POPC     C33      CTL2    -0.180000       12.0110           0
      8675 MEMB     65       POPC     H3X      HAL2     0.900000E-01   1.00800           0
      8676 MEMB     65       POPC     H3Y      HAL2     0.900000E-01   1.00800           0
      8677 MEMB     65       POPC     C34      CTL2    -0.180000       12.0110           0
      8678 MEMB     65       POPC     H4X      HAL2     0.900000E-01   1.00800           0
      8679 MEMB     65       POPC     H4Y      HAL2     0.900000E-01   1.00800           0
      8680 MEMB     65       POPC     C35      CTL2    -0.180000       12.0110           0
      8681 MEMB     65       POPC     H5X      HAL2     0.900000E-01   1.00800           0
      8682 MEMB     65       POPC     H5Y      HAL2     0.900000E-01   1.00800           0
      8683 MEMB     65       POPC     C36      CTL2    -0.180000       12.0110           0
      8684 MEMB     65       POPC     H6X      HAL2     0.900000E-01   1.00800           0
      8685 MEMB     65       POPC     H6Y      HAL2     0.900000E-01   1.00800           0
      8686 MEMB     65       POPC     C37      CTL2    -0.180000       12.0110           0
      8687 MEMB     65       POPC     H7X      HAL2     0.900000E-01   1.00800           0
      8688 MEMB     65       POPC     H7Y      HAL2     0.900000E-01   1.00800           0
      8689 MEMB     65       POPC     C38      CTL2    -0.180000       12.0110           0
      8690 MEMB     65       POPC     H8X      HAL2     0.900000E-01   1.00800           0
      8691 MEMB     65       POPC     H8Y      HAL2     0.900000E-01   1.00800           0
      8692 MEMB     65       POPC     C39      CTL2    -0.180000       12.0110           0
      8693 MEMB     65       POPC     H9X      HAL2     0.900000E-01   1.00800           0
      8694 MEMB     65       POPC     H9Y      HAL2     0.900000E-01   1.00800           0
      8695 MEMB     65       POPC     C310     CTL2    -0.180000       12.0110           0
      8696 MEMB     65       POPC     H10X     HAL2     0.900000E-01   1.00800           0
      8697 MEMB     65       POPC     H10Y     HAL2     0.900000E-01   1.00800           0
      8698 MEMB     65       POPC     C311     CTL2    -0.180000       12.0110           0
      8699 MEMB     65       POPC     H11X     HAL2     0.900000E-01   1.00800           0
      8700 MEMB     65       POPC     H11Y     HAL2     0.900000E-01   1.00800           0
      8701 MEMB     65       POPC     C312     CTL2    -0.180000       12.0110           0
      8702 MEMB     65       POPC     H12X     HAL2     0.900000E-01   1.00800           0
      8703 MEMB     65       POPC     H12Y     HAL2     0.900000E-01   1.00800           0
      8704 MEMB     65       POPC     C313     CTL2    -0.180000       12.0110           0
      8705 MEMB     65       POPC     H13X     HAL2     0.900000E-01   1.00800           0
      8706 MEMB     65       POPC     H13Y     HAL2     0.900000E-01   1.00800           0
      8707 MEMB     65       POPC     C314     CTL2    -0.180000       12.0110           0
      8708 MEMB     65       POPC     H14X     HAL2     0.900000E-01   1.00800           0
      8709 MEMB     65       POPC     H14Y     HAL2     0.900000E-01   1.00800           0
      8710 MEMB     65       POPC     C315     CTL2    -0.180000       12.0110           0
      8711 MEMB     65       POPC     H15X     HAL2     0.900000E-01   1.00800           0
      8712 MEMB     65       POPC     H15Y     HAL2     0.900000E-01   1.00800           0
      8713 MEMB     65       POPC     C316     CTL3    -0.270000       12.0110           0
      8714 MEMB     65       POPC     H16X     HAL3     0.900000E-01   1.00800           0
      8715 MEMB     65       POPC     H16Y     HAL3     0.900000E-01   1.00800           0
      8716 MEMB     65       POPC     H16Z     HAL3     0.900000E-01   1.00800           0
      8717 MEMB     66       POPC     N        NTL     -0.600000       14.0070           0
      8718 MEMB     66       POPC     C12      CTL2    -0.100000       12.0110           0
      8719 MEMB     66       POPC     H12A     HL       0.250000       1.00800           0
      8720 MEMB     66       POPC     H12B     HL       0.250000       1.00800           0
      8721 MEMB     66       POPC     C13      CTL5    -0.350000       12.0110           0
      8722 MEMB     66       POPC     H13A     HL       0.250000       1.00800           0
      8723 MEMB     66       POPC     H13B     HL       0.250000       1.00800           0
      8724 MEMB     66       POPC     H13C     HL       0.250000       1.00800           0
      8725 MEMB     66       POPC     C14      CTL5    -0.350000       12.0110           0
      8726 MEMB     66       POPC     H14A     HL       0.250000       1.00800           0
      8727 MEMB     66       POPC     H14B     HL       0.250000       1.00800           0
      8728 MEMB     66       POPC     H14C     HL       0.250000       1.00800           0
      8729 MEMB     66       POPC     C15      CTL5    -0.350000       12.0110           0
      8730 MEMB     66       POPC     H15A     HL       0.250000       1.00800           0
      8731 MEMB     66       POPC     H15B     HL       0.250000       1.00800           0
      8732 MEMB     66       POPC     H15C     HL       0.250000       1.00800           0
      8733 MEMB     66       POPC     C11      CTL2    -0.800000E-01   12.0110           0
      8734 MEMB     66       POPC     H11A     HAL2     0.900000E-01   1.00800           0
      8735 MEMB     66       POPC     H11B     HAL2     0.900000E-01   1.00800           0
      8736 MEMB     66       POPC     P        PL        1.50000       30.9740           0
      8737 MEMB     66       POPC     O13      O2L     -0.780000       15.9994           0
      8738 MEMB     66       POPC     O14      O2L     -0.780000       15.9994           0
      8739 MEMB     66       POPC     O12      OSLP    -0.570000       15.9994           0
      8740 MEMB     66       POPC     O11      OSLP    -0.570000       15.9994           0
      8741 MEMB     66       POPC     C1       CTL2    -0.800000E-01   12.0110           0
      8742 MEMB     66       POPC     HA       HAL2     0.900000E-01   1.00800           0
      8743 MEMB     66       POPC     HB       HAL2     0.900000E-01   1.00800           0
      8744 MEMB     66       POPC     C2       CTL1     0.170000       12.0110           0
      8745 MEMB     66       POPC     HS       HAL1     0.900000E-01   1.00800           0
      8746 MEMB     66       POPC     O21      OSL     -0.490000       15.9994           0
      8747 MEMB     66       POPC     C21      CL       0.900000       12.0110           0
      8748 MEMB     66       POPC     O22      OBL     -0.630000       15.9994           0
      8749 MEMB     66       POPC     C22      CTL2    -0.220000       12.0110           0
      8750 MEMB     66       POPC     H2R      HAL2     0.900000E-01   1.00800           0
      8751 MEMB     66       POPC     H2S      HAL2     0.900000E-01   1.00800           0
      8752 MEMB     66       POPC     C3       CTL2     0.800000E-01   12.0110           0
      8753 MEMB     66       POPC     HX       HAL2     0.900000E-01   1.00800           0
      8754 MEMB     66       POPC     HY       HAL2     0.900000E-01   1.00800           0
      8755 MEMB     66       POPC     O31      OSL     -0.490000       15.9994           0
      8756 MEMB     66       POPC     C31      CL       0.900000       12.0110           0
      8757 MEMB     66       POPC     O32      OBL     -0.630000       15.9994           0
      8758 MEMB     66       POPC     C32      CTL2    -0.220000       12.0110           0
      8759 MEMB     66       POPC     H2X      HAL2     0.900000E-01   1.00800           0
      8760 MEMB     66       POPC     H2Y      HAL2     0.900000E-01   1.00800           0
      8761 MEMB     66       POPC     C23      CTL2    -0.180000       12.0110           0
      8762 MEMB     66       POPC     H3R      HAL2     0.900000E-01   1.00800           0
      8763 MEMB     66       POPC     H3S      HAL2     0.900000E-01   1.00800           0
      8764 MEMB     66       POPC     C24      CTL2    -0.180000       12.0110           0
      8765 MEMB     66       POPC     H4R      HAL2     0.900000E-01   1.00800           0
      8766 MEMB     66       POPC     H4S      HAL2     0.900000E-01   1.00800           0
      8767 MEMB     66       POPC     C25      CTL2    -0.180000       12.0110           0
      8768 MEMB     66       POPC     H5R      HAL2     0.900000E-01   1.00800           0
      8769 MEMB     66       POPC     H5S      HAL2     0.900000E-01   1.00800           0
      8770 MEMB     66       POPC     C26      CTL2    -0.180000       12.0110           0
      8771 MEMB     66       POPC     H6R      HAL2     0.900000E-01   1.00800           0
      8772 MEMB     66       POPC     H6S      HAL2     0.900000E-01   1.00800           0
      8773 MEMB     66       POPC     C27      CTL2    -0.180000       12.0110           0
      8774 MEMB     66       POPC     H7R      HAL2     0.900000E-01   1.00800           0
      8775 MEMB     66       POPC     H7S      HAL2     0.900000E-01   1.00800           0
      8776 MEMB     66       POPC     C28      CTL2    -0.180000       12.0110           0
      8777 MEMB     66       POPC     H8R      HAL2     0.900000E-01   1.00800           0
      8778 MEMB     66       POPC     H8S      HAL2     0.900000E-01   1.00800           0
      8779 MEMB     66       POPC     C29      CEL1    -0.150000       12.0110           0
      8780 MEMB     66       POPC     H91      HEL1     0.150000       1.00800           0
      8781 MEMB     66       POPC     C210     CEL1    -0.150000       12.0110           0
      8782 MEMB     66       POPC     H101     HEL1     0.150000       1.00800           0
      8783 MEMB     66       POPC     C211     CTL2    -0.180000       12.0110           0
      8784 MEMB     66       POPC     H11R     HAL2     0.900000E-01   1.00800           0
      8785 MEMB     66       POPC     H11S     HAL2     0.900000E-01   1.00800           0
      8786 MEMB     66       POPC     C212     CTL2    -0.180000       12.0110           0
      8787 MEMB     66       POPC     H12R     HAL2     0.900000E-01   1.00800           0
      8788 MEMB     66       POPC     H12S     HAL2     0.900000E-01   1.00800           0
      8789 MEMB     66       POPC     C213     CTL2    -0.180000       12.0110           0
      8790 MEMB     66       POPC     H13R     HAL2     0.900000E-01   1.00800           0
      8791 MEMB     66       POPC     H13S     HAL2     0.900000E-01   1.00800           0
      8792 MEMB     66       POPC     C214     CTL2    -0.180000       12.0110           0
      8793 MEMB     66       POPC     H14R     HAL2     0.900000E-01   1.00800           0
      8794 MEMB     66       POPC     H14S     HAL2     0.900000E-01   1.00800           0
      8795 MEMB     66       POPC     C215     CTL2    -0.180000       12.0110           0
      8796 MEMB     66       POPC     H15R     HAL2     0.900000E-01   1.00800           0
      8797 MEMB     66       POPC     H15S     HAL2     0.900000E-01   1.00800           0
      8798 MEMB     66       POPC     C216     CTL2    -0.180000       12.0110           0
      8799 MEMB     66       POPC     H16R     HAL2     0.900000E-01   1.00800           0
      8800 MEMB     66       POPC     H16S     HAL2     0.900000E-01   1.00800           0
      8801 MEMB     66       POPC     C217     CTL2    -0.180000       12.0110           0
      8802 MEMB     66       POPC     H17R     HAL2     0.900000E-01   1.00800           0
      8803 MEMB     66       POPC     H17S     HAL2     0.900000E-01   1.00800           0
      8804 MEMB     66       POPC     C218     CTL3    -0.270000       12.0110           0
      8805 MEMB     66       POPC     H18R     HAL3     0.900000E-01   1.00800           0
      8806 MEMB     66       POPC     H18S     HAL3     0.900000E-01   1.00800           0
      8807 MEMB     66       POPC     H18T     HAL3     0.900000E-01   1.00800           0
      8808 MEMB     66       POPC     C33      CTL2    -0.180000       12.0110           0
      8809 MEMB     66       POPC     H3X      HAL2     0.900000E-01   1.00800           0
      8810 MEMB     66       POPC     H3Y      HAL2     0.900000E-01   1.00800           0
      8811 MEMB     66       POPC     C34      CTL2    -0.180000       12.0110           0
      8812 MEMB     66       POPC     H4X      HAL2     0.900000E-01   1.00800           0
      8813 MEMB     66       POPC     H4Y      HAL2     0.900000E-01   1.00800           0
      8814 MEMB     66       POPC     C35      CTL2    -0.180000       12.0110           0
      8815 MEMB     66       POPC     H5X      HAL2     0.900000E-01   1.00800           0
      8816 MEMB     66       POPC     H5Y      HAL2     0.900000E-01   1.00800           0
      8817 MEMB     66       POPC     C36      CTL2    -0.180000       12.0110           0
      8818 MEMB     66       POPC     H6X      HAL2     0.900000E-01   1.00800           0
      8819 MEMB     66       POPC     H6Y      HAL2     0.900000E-01   1.00800           0
      8820 MEMB     66       POPC     C37      CTL2    -0.180000       12.0110           0
      8821 MEMB     66       POPC     H7X      HAL2     0.900000E-01   1.00800           0
      8822 MEMB     66       POPC     H7Y      HAL2     0.900000E-01   1.00800           0
      8823 MEMB     66       POPC     C38      CTL2    -0.180000       12.0110           0
      8824 MEMB     66       POPC     H8X      HAL2     0.900000E-01   1.00800           0
      8825 MEMB     66       POPC     H8Y      HAL2     0.900000E-01   1.00800           0
      8826 MEMB     66       POPC     C39      CTL2    -0.180000       12.0110           0
      8827 MEMB     66       POPC     H9X      HAL2     0.900000E-01   1.00800           0
      8828 MEMB     66       POPC     H9Y      HAL2     0.900000E-01   1.00800           0
      8829 MEMB     66       POPC     C310     CTL2    -0.180000       12.0110           0
      8830 MEMB     66       POPC     H10X     HAL2     0.900000E-01   1.00800           0
      8831 MEMB     66       POPC     H10Y     HAL2     0.900000E-01   1.00800           0
      8832 MEMB     66       POPC     C311     CTL2    -0.180000       12.0110           0
      8833 MEMB     66       POPC     H11X     HAL2     0.900000E-01   1.00800           0
      8834 MEMB     66       POPC     H11Y     HAL2     0.900000E-01   1.00800           0
      8835 MEMB     66       POPC     C312     CTL2    -0.180000       12.0110           0
      8836 MEMB     66       POPC     H12X     HAL2     0.900000E-01   1.00800           0
      8837 MEMB     66       POPC     H12Y     HAL2     0.900000E-01   1.00800           0
      8838 MEMB     66       POPC     C313     CTL2    -0.180000       12.0110           0
      8839 MEMB     66       POPC     H13X     HAL2     0.900000E-01   1.00800           0
      8840 MEMB     66       POPC     H13Y     HAL2     0.900000E-01   1.00800           0
      8841 MEMB     66       POPC     C314     CTL2    -0.180000       12.0110           0
      8842 MEMB     66       POPC     H14X     HAL2     0.900000E-01   1.00800           0
      8843 MEMB     66       POPC     H14Y     HAL2     0.900000E-01   1.00800           0
      8844 MEMB     66       POPC     C315     CTL2    -0.180000       12.0110           0
      8845 MEMB     66       POPC     H15X     HAL2     0.900000E-01   1.00800           0
      8846 MEMB     66       POPC     H15Y     HAL2     0.900000E-01   1.00800           0
      8847 MEMB     66       POPC     C316     CTL3    -0.270000       12.0110           0
      8848 MEMB     66       POPC     H16X     HAL3     0.900000E-01   1.00800           0
      8849 MEMB     66       POPC     H16Y     HAL3     0.900000E-01   1.00800           0
      8850 MEMB     66       POPC     H16Z     HAL3     0.900000E-01   1.00800           0
      8851 MEMB     67       POPC     N        NTL     -0.600000       14.0070           0
      8852 MEMB     67       POPC     C12      CTL2    -0.100000       12.0110           0
      8853 MEMB     67       POPC     H12A     HL       0.250000       1.00800           0
      8854 MEMB     67       POPC     H12B     HL       0.250000       1.00800           0
      8855 MEMB     67       POPC     C13      CTL5    -0.350000       12.0110           0
      8856 MEMB     67       POPC     H13A     HL       0.250000       1.00800           0
      8857 MEMB     67       POPC     H13B     HL       0.250000       1.00800           0
      8858 MEMB     67       POPC     H13C     HL       0.250000       1.00800           0
      8859 MEMB     67       POPC     C14      CTL5    -0.350000       12.0110           0
      8860 MEMB     67       POPC     H14A     HL       0.250000       1.00800           0
      8861 MEMB     67       POPC     H14B     HL       0.250000       1.00800           0
      8862 MEMB     67       POPC     H14C     HL       0.250000       1.00800           0
      8863 MEMB     67       POPC     C15      CTL5    -0.350000       12.0110           0
      8864 MEMB     67       POPC     H15A     HL       0.250000       1.00800           0
      8865 MEMB     67       POPC     H15B     HL       0.250000       1.00800           0
      8866 MEMB     67       POPC     H15C     HL       0.250000       1.00800           0
      8867 MEMB     67       POPC     C11      CTL2    -0.800000E-01   12.0110           0
      8868 MEMB     67       POPC     H11A     HAL2     0.900000E-01   1.00800           0
      8869 MEMB     67       POPC     H11B     HAL2     0.900000E-01   1.00800           0
      8870 MEMB     67       POPC     P        PL        1.50000       30.9740           0
      8871 MEMB     67       POPC     O13      O2L     -0.780000       15.9994           0
      8872 MEMB     67       POPC     O14      O2L     -0.780000       15.9994           0
      8873 MEMB     67       POPC     O12      OSLP    -0.570000       15.9994           0
      8874 MEMB     67       POPC     O11      OSLP    -0.570000       15.9994           0
      8875 MEMB     67       POPC     C1       CTL2    -0.800000E-01   12.0110           0
      8876 MEMB     67       POPC     HA       HAL2     0.900000E-01   1.00800           0
      8877 MEMB     67       POPC     HB       HAL2     0.900000E-01   1.00800           0
      8878 MEMB     67       POPC     C2       CTL1     0.170000       12.0110           0
      8879 MEMB     67       POPC     HS       HAL1     0.900000E-01   1.00800           0
      8880 MEMB     67       POPC     O21      OSL     -0.490000       15.9994           0
      8881 MEMB     67       POPC     C21      CL       0.900000       12.0110           0
      8882 MEMB     67       POPC     O22      OBL     -0.630000       15.9994           0
      8883 MEMB     67       POPC     C22      CTL2    -0.220000       12.0110           0
      8884 MEMB     67       POPC     H2R      HAL2     0.900000E-01   1.00800           0
      8885 MEMB     67       POPC     H2S      HAL2     0.900000E-01   1.00800           0
      8886 MEMB     67       POPC     C3       CTL2     0.800000E-01   12.0110           0
      8887 MEMB     67       POPC     HX       HAL2     0.900000E-01   1.00800           0
      8888 MEMB     67       POPC     HY       HAL2     0.900000E-01   1.00800           0
      8889 MEMB     67       POPC     O31      OSL     -0.490000       15.9994           0
      8890 MEMB     67       POPC     C31      CL       0.900000       12.0110           0
      8891 MEMB     67       POPC     O32      OBL     -0.630000       15.9994           0
      8892 MEMB     67       POPC     C32      CTL2    -0.220000       12.0110           0
      8893 MEMB     67       POPC     H2X      HAL2     0.900000E-01   1.00800           0
      8894 MEMB     67       POPC     H2Y      HAL2     0.900000E-01   1.00800           0
      8895 MEMB     67       POPC     C23      CTL2    -0.180000       12.0110           0
      8896 MEMB     67       POPC     H3R      HAL2     0.900000E-01   1.00800           0
      8897 MEMB     67       POPC     H3S      HAL2     0.900000E-01   1.00800           0
      8898 MEMB     67       POPC     C24      CTL2    -0.180000       12.0110           0
      8899 MEMB     67       POPC     H4R      HAL2     0.900000E-01   1.00800           0
      8900 MEMB     67       POPC     H4S      HAL2     0.900000E-01   1.00800           0
      8901 MEMB     67       POPC     C25      CTL2    -0.180000       12.0110           0
      8902 MEMB     67       POPC     H5R      HAL2     0.900000E-01   1.00800           0
      8903 MEMB     67       POPC     H5S      HAL2     0.900000E-01   1.00800           0
      8904 MEMB     67       POPC     C26      CTL2    -0.180000       12.0110           0
      8905 MEMB     67       POPC     H6R      HAL2     0.900000E-01   1.00800           0
      8906 MEMB     67       POPC     H6S      HAL2     0.900000E-01   1.00800           0
      8907 MEMB     67       POPC     C27      CTL2    -0.180000       12.0110           0
      8908 MEMB     67       POPC     H7R      HAL2     0.900000E-01   1.00800           0
      8909 MEMB     67       POPC     H7S      HAL2     0.900000E-01   1.00800           0
      8910 MEMB     67       POPC     C28      CTL2    -0.180000       12.0110           0
      8911 MEMB     67       POPC     H8R      HAL2     0.900000E-01   1.00800           0
      8912 MEMB     67       POPC     H8S      HAL2     0.900000E-01   1.00800           0
      8913 MEMB     67       POPC     C29      CEL1    -0.150000       12.0110           0
      8914 MEMB     67       POPC     H91      HEL1     0.150000       1.00800           0
      8915 MEMB     67       POPC     C210     CEL1    -0.150000       12.0110           0
      8916 MEMB     67       POPC     H101     HEL1     0.150000       1.00800           0
      8917 MEMB     67       POPC     C211     CTL2    -0.180000       12.0110           0
      8918 MEMB     67       POPC     H11R     HAL2     0.900000E-01   1.00800           0
      8919 MEMB     67       POPC     H11S     HAL2     0.900000E-01   1.00800           0
      8920 MEMB     67       POPC     C212     CTL2    -0.180000       12.0110           0
      8921 MEMB     67       POPC     H12R     HAL2     0.900000E-01   1.00800           0
      8922 MEMB     67       POPC     H12S     HAL2     0.900000E-01   1.00800           0
      8923 MEMB     67       POPC     C213     CTL2    -0.180000       12.0110           0
      8924 MEMB     67       POPC     H13R     HAL2     0.900000E-01   1.00800           0
      8925 MEMB     67       POPC     H13S     HAL2     0.900000E-01   1.00800           0
      8926 MEMB     67       POPC     C214     CTL2    -0.180000       12.0110           0
      8927 MEMB     67       POPC     H14R     HAL2     0.900000E-01   1.00800           0
      8928 MEMB     67       POPC     H14S     HAL2     0.900000E-01   1.00800           0
      8929 MEMB     67       POPC     C215     CTL2    -0.180000       12.0110           0
      8930 MEMB     67       POPC     H15R     HAL2     0.900000E-01   1.00800           0
      8931 MEMB     67       POPC     H15S     HAL2     0.900000E-01   1.00800           0
      8932 MEMB     67       POPC     C216     CTL2    -0.180000       12.0110           0
      8933 MEMB     67       POPC     H16R     HAL2     0.900000E-01   1.00800           0
      8934 MEMB     67       POPC     H16S     HAL2     0.900000E-01   1.00800           0
      8935 MEMB     67       POPC     C217     CTL2    -0.180000       12.0110           0
      8936 MEMB     67       POPC     H17R     HAL2     0.900000E-01   1.00800           0
      8937 MEMB     67       POPC     H17S     HAL2     0.900000E-01   1.00800           0
      8938 MEMB     67       POPC     C218     CTL3    -0.270000       12.0110           0
      8939 MEMB     67       POPC     H18R     HAL3     0.900000E-01   1.00800           0
      8940 MEMB     67       POPC     H18S     HAL3     0.900000E-01   1.00800           0
      8941 MEMB     67       POPC     H18T     HAL3     0.900000E-01   1.00800           0
      8942 MEMB     67       POPC     C33      CTL2    -0.180000       12.0110           0
      8943 MEMB     67       POPC     H3X      HAL2     0.900000E-01   1.00800           0
      8944 MEMB     67       POPC     H3Y      HAL2     0.900000E-01   1.00800           0
      8945 MEMB     67       POPC     C34      CTL2    -0.180000       12.0110           0
      8946 MEMB     67       POPC     H4X      HAL2     0.900000E-01   1.00800           0
      8947 MEMB     67       POPC     H4Y      HAL2     0.900000E-01   1.00800           0
      8948 MEMB     67       POPC     C35      CTL2    -0.180000       12.0110           0
      8949 MEMB     67       POPC     H5X      HAL2     0.900000E-01   1.00800           0
      8950 MEMB     67       POPC     H5Y      HAL2     0.900000E-01   1.00800           0
      8951 MEMB     67       POPC     C36      CTL2    -0.180000       12.0110           0
      8952 MEMB     67       POPC     H6X      HAL2     0.900000E-01   1.00800           0
      8953 MEMB     67       POPC     H6Y      HAL2     0.900000E-01   1.00800           0
      8954 MEMB     67       POPC     C37      CTL2    -0.180000       12.0110           0
      8955 MEMB     67       POPC     H7X      HAL2     0.900000E-01   1.00800           0
      8956 MEMB     67       POPC     H7Y      HAL2     0.900000E-01   1.00800           0
      8957 MEMB     67       POPC     C38      CTL2    -0.180000       12.0110           0
      8958 MEMB     67       POPC     H8X      HAL2     0.900000E-01   1.00800           0
      8959 MEMB     67       POPC     H8Y      HAL2     0.900000E-01   1.00800           0
      8960 MEMB     67       POPC     C39      CTL2    -0.180000       12.0110           0
      8961 MEMB     67       POPC     H9X      HAL2     0.900000E-01   1.00800           0
      8962 MEMB     67       POPC     H9Y      HAL2     0.900000E-01   1.00800           0
      8963 MEMB     67       POPC     C310     CTL2    -0.180000       12.0110           0
      8964 MEMB     67       POPC     H10X     HAL2     0.900000E-01   1.00800           0
      8965 MEMB     67       POPC     H10Y     HAL2     0.900000E-01   1.00800           0
      8966 MEMB     67       POPC     C311     CTL2    -0.180000       12.0110           0
      8967 MEMB     67       POPC     H11X     HAL2     0.900000E-01   1.00800           0
      8968 MEMB     67       POPC     H11Y     HAL2     0.900000E-01   1.00800           0
      8969 MEMB     67       POPC     C312     CTL2    -0.180000       12.0110           0
      8970 MEMB     67       POPC     H12X     HAL2     0.900000E-01   1.00800           0
      8971 MEMB     67       POPC     H12Y     HAL2     0.900000E-01   1.00800           0
      8972 MEMB     67       POPC     C313     CTL2    -0.180000       12.0110           0
      8973 MEMB     67       POPC     H13X     HAL2     0.900000E-01   1.00800           0
      8974 MEMB     67       POPC     H13Y     HAL2     0.900000E-01   1.00800           0
      8975 MEMB     67       POPC     C314     CTL2    -0.180000       12.0110           0
      8976 MEMB     67       POPC     H14X     HAL2     0.900000E-01   1.00800           0
      8977 MEMB     67       POPC     H14Y     HAL2     0.900000E-01   1.00800           0
      8978 MEMB     67       POPC     C315     CTL2    -0.180000       12.0110           0
      8979 MEMB     67       POPC     H15X     HAL2     0.900000E-01   1.00800           0
      8980 MEMB     67       POPC     H15Y     HAL2     0.900000E-01   1.00800           0
      8981 MEMB     67       POPC     C316     CTL3    -0.270000       12.0110           0
      8982 MEMB     67       POPC     H16X     HAL3     0.900000E-01   1.00800           0
      8983 MEMB     67       POPC     H16Y     HAL3     0.900000E-01   1.00800           0
      8984 MEMB     67       POPC     H16Z     HAL3     0.900000E-01   1.00800           0
      8985 MEMB     68       POPC     N        NTL     -0.600000       14.0070           0
      8986 MEMB     68       POPC     C12      CTL2    -0.100000       12.0110           0
      8987 MEMB     68       POPC     H12A     HL       0.250000       1.00800           0
      8988 MEMB     68       POPC     H12B     HL       0.250000       1.00800           0
      8989 MEMB     68       POPC     C13      CTL5    -0.350000       12.0110           0
      8990 MEMB     68       POPC     H13A     HL       0.250000       1.00800           0
      8991 MEMB     68       POPC     H13B     HL       0.250000       1.00800           0
      8992 MEMB     68       POPC     H13C     HL       0.250000       1.00800           0
      8993 MEMB     68       POPC     C14      CTL5    -0.350000       12.0110           0
      8994 MEMB     68       POPC     H14A     HL       0.250000       1.00800           0
      8995 MEMB     68       POPC     H14B     HL       0.250000       1.00800           0
      8996 MEMB     68       POPC     H14C     HL       0.250000       1.00800           0
      8997 MEMB     68       POPC     C15      CTL5    -0.350000       12.0110           0
      8998 MEMB     68       POPC     H15A     HL       0.250000       1.00800           0
      8999 MEMB     68       POPC     H15B     HL       0.250000       1.00800           0
      9000 MEMB     68       POPC     H15C     HL       0.250000       1.00800           0
      9001 MEMB     68       POPC     C11      CTL2    -0.800000E-01   12.0110           0
      9002 MEMB     68       POPC     H11A     HAL2     0.900000E-01   1.00800           0
      9003 MEMB     68       POPC     H11B     HAL2     0.900000E-01   1.00800           0
      9004 MEMB     68       POPC     P        PL        1.50000       30.9740           0
      9005 MEMB     68       POPC     O13      O2L     -0.780000       15.9994           0
      9006 MEMB     68       POPC     O14      O2L     -0.780000       15.9994           0
      9007 MEMB     68       POPC     O12      OSLP    -0.570000       15.9994           0
      9008 MEMB     68       POPC     O11      OSLP    -0.570000       15.9994           0
      9009 MEMB     68       POPC     C1       CTL2    -0.800000E-01   12.0110           0
      9010 MEMB     68       POPC     HA       HAL2     0.900000E-01   1.00800           0
      9011 MEMB     68       POPC     HB       HAL2     0.900000E-01   1.00800           0
      9012 MEMB     68       POPC     C2       CTL1     0.170000       12.0110           0
      9013 MEMB     68       POPC     HS       HAL1     0.900000E-01   1.00800           0
      9014 MEMB     68       POPC     O21      OSL     -0.490000       15.9994           0
      9015 MEMB     68       POPC     C21      CL       0.900000       12.0110           0
      9016 MEMB     68       POPC     O22      OBL     -0.630000       15.9994           0
      9017 MEMB     68       POPC     C22      CTL2    -0.220000       12.0110           0
      9018 MEMB     68       POPC     H2R      HAL2     0.900000E-01   1.00800           0
      9019 MEMB     68       POPC     H2S      HAL2     0.900000E-01   1.00800           0
      9020 MEMB     68       POPC     C3       CTL2     0.800000E-01   12.0110           0
      9021 MEMB     68       POPC     HX       HAL2     0.900000E-01   1.00800           0
      9022 MEMB     68       POPC     HY       HAL2     0.900000E-01   1.00800           0
      9023 MEMB     68       POPC     O31      OSL     -0.490000       15.9994           0
      9024 MEMB     68       POPC     C31      CL       0.900000       12.0110           0
      9025 MEMB     68       POPC     O32      OBL     -0.630000       15.9994           0
      9026 MEMB     68       POPC     C32      CTL2    -0.220000       12.0110           0
      9027 MEMB     68       POPC     H2X      HAL2     0.900000E-01   1.00800           0
      9028 MEMB     68       POPC     H2Y      HAL2     0.900000E-01   1.00800           0
      9029 MEMB     68       POPC     C23      CTL2    -0.180000       12.0110           0
      9030 MEMB     68       POPC     H3R      HAL2     0.900000E-01   1.00800           0
      9031 MEMB     68       POPC     H3S      HAL2     0.900000E-01   1.00800           0
      9032 MEMB     68       POPC     C24      CTL2    -0.180000       12.0110           0
      9033 MEMB     68       POPC     H4R      HAL2     0.900000E-01   1.00800           0
      9034 MEMB     68       POPC     H4S      HAL2     0.900000E-01   1.00800           0
      9035 MEMB     68       POPC     C25      CTL2    -0.180000       12.0110           0
      9036 MEMB     68       POPC     H5R      HAL2     0.900000E-01   1.00800           0
      9037 MEMB     68       POPC     H5S      HAL2     0.900000E-01   1.00800           0
      9038 MEMB     68       POPC     C26      CTL2    -0.180000       12.0110           0
      9039 MEMB     68       POPC     H6R      HAL2     0.900000E-01   1.00800           0
      9040 MEMB     68       POPC     H6S      HAL2     0.900000E-01   1.00800           0
      9041 MEMB     68       POPC     C27      CTL2    -0.180000       12.0110           0
      9042 MEMB     68       POPC     H7R      HAL2     0.900000E-01   1.00800           0
      9043 MEMB     68       POPC     H7S      HAL2     0.900000E-01   1.00800           0
      9044 MEMB     68       POPC     C28      CTL2    -0.180000       12.0110           0
      9045 MEMB     68       POPC     H8R      HAL2     0.900000E-01   1.00800           0
      9046 MEMB     68       POPC     H8S      HAL2     0.900000E-01   1.00800           0
      9047 MEMB     68       POPC     C29      CEL1    -0.150000       12.0110           0
      9048 MEMB     68       POPC     H91      HEL1     0.150000       1.00800           0
      9049 MEMB     68       POPC     C210     CEL1    -0.150000       12.0110           0
      9050 MEMB     68       POPC     H101     HEL1     0.150000       1.00800           0
      9051 MEMB     68       POPC     C211     CTL2    -0.180000       12.0110           0
      9052 MEMB     68       POPC     H11R     HAL2     0.900000E-01   1.00800           0
      9053 MEMB     68       POPC     H11S     HAL2     0.900000E-01   1.00800           0
      9054 MEMB     68       POPC     C212     CTL2    -0.180000       12.0110           0
      9055 MEMB     68       POPC     H12R     HAL2     0.900000E-01   1.00800           0
      9056 MEMB     68       POPC     H12S     HAL2     0.900000E-01   1.00800           0
      9057 MEMB     68       POPC     C213     CTL2    -0.180000       12.0110           0
      9058 MEMB     68       POPC     H13R     HAL2     0.900000E-01   1.00800           0
      9059 MEMB     68       POPC     H13S     HAL2     0.900000E-01   1.00800           0
      9060 MEMB     68       POPC     C214     CTL2    -0.180000       12.0110           0
      9061 MEMB     68       POPC     H14R     HAL2     0.900000E-01   1.00800           0
      9062 MEMB     68       POPC     H14S     HAL2     0.900000E-01   1.00800           0
      9063 MEMB     68       POPC     C215     CTL2    -0.180000       12.0110           0
      9064 MEMB     68       POPC     H15R     HAL2     0.900000E-01   1.00800           0
      9065 MEMB     68       POPC     H15S     HAL2     0.900000E-01   1.00800           0
      9066 MEMB     68       POPC     C216     CTL2    -0.180000       12.0110           0
      9067 MEMB     68       POPC     H16R     HAL2     0.900000E-01   1.00800           0
      9068 MEMB     68       POPC     H16S     HAL2     0.900000E-01   1.00800           0
      9069 MEMB     68       POPC     C217     CTL2    -0.180000       12.0110           0
      9070 MEMB     68       POPC     H17R     HAL2     0.900000E-01   1.00800           0
      9071 MEMB     68       POPC     H17S     HAL2     0.900000E-01   1.00800           0
      9072 MEMB     68       POPC     C218     CTL3    -0.270000       12.0110           0
      9073 MEMB     68       POPC     H18R     HAL3     0.900000E-01   1.00800           0
      9074 MEMB     68       POPC     H18S     HAL3     0.900000E-01   1.00800           0
      9075 MEMB     68       POPC     H18T     HAL3     0.900000E-01   1.00800           0
      9076 MEMB     68       POPC     C33      CTL2    -0.180000       12.0110           0
      9077 MEMB     68       POPC     H3X      HAL2     0.900000E-01   1.00800           0
      9078 MEMB     68       POPC     H3Y      HAL2     0.900000E-01   1.00800           0
      9079 MEMB     68       POPC     C34      CTL2    -0.180000       12.0110           0
      9080 MEMB     68       POPC     H4X      HAL2     0.900000E-01   1.00800           0
      9081 MEMB     68       POPC     H4Y      HAL2     0.900000E-01   1.00800           0
      9082 MEMB     68       POPC     C35      CTL2    -0.180000       12.0110           0
      9083 MEMB     68       POPC     H5X      HAL2     0.900000E-01   1.00800           0
      9084 MEMB     68       POPC     H5Y      HAL2     0.900000E-01   1.00800           0
      9085 MEMB     68       POPC     C36      CTL2    -0.180000       12.0110           0
      9086 MEMB     68       POPC     H6X      HAL2     0.900000E-01   1.00800           0
      9087 MEMB     68       POPC     H6Y      HAL2     0.900000E-01   1.00800           0
      9088 MEMB     68       POPC     C37      CTL2    -0.180000       12.0110           0
      9089 MEMB     68       POPC     H7X      HAL2     0.900000E-01   1.00800           0
      9090 MEMB     68       POPC     H7Y      HAL2     0.900000E-01   1.00800           0
      9091 MEMB     68       POPC     C38      CTL2    -0.180000       12.0110           0
      9092 MEMB     68       POPC     H8X      HAL2     0.900000E-01   1.00800           0
      9093 MEMB     68       POPC     H8Y      HAL2     0.900000E-01   1.00800           0
      9094 MEMB     68       POPC     C39      CTL2    -0.180000       12.0110           0
      9095 MEMB     68       POPC     H9X      HAL2     0.900000E-01   1.00800           0
      9096 MEMB     68       POPC     H9Y      HAL2     0.900000E-01   1.00800           0
      9097 MEMB     68       POPC     C310     CTL2    -0.180000       12.0110           0
      9098 MEMB     68       POPC     H10X     HAL2     0.900000E-01   1.00800           0
      9099 MEMB     68       POPC     H10Y     HAL2     0.900000E-01   1.00800           0
      9100 MEMB     68       POPC     C311     CTL2    -0.180000       12.0110           0
      9101 MEMB     68       POPC     H11X     HAL2     0.900000E-01   1.00800           0
      9102 MEMB     68       POPC     H11Y     HAL2     0.900000E-01   1.00800           0
      9103 MEMB     68       POPC     C312     CTL2    -0.180000       12.0110           0
      9104 MEMB     68       POPC     H12X     HAL2     0.900000E-01   1.00800           0
      9105 MEMB     68       POPC     H12Y     HAL2     0.900000E-01   1.00800           0
      9106 MEMB     68       POPC     C313     CTL2    -0.180000       12.0110           0
      9107 MEMB     68       POPC     H13X     HAL2     0.900000E-01   1.00800           0
      9108 MEMB     68       POPC     H13Y     HAL2     0.900000E-01   1.00800           0
      9109 MEMB     68       POPC     C314     CTL2    -0.180000       12.0110           0
      9110 MEMB     68       POPC     H14X     HAL2     0.900000E-01   1.00800           0
      9111 MEMB     68       POPC     H14Y     HAL2     0.900000E-01   1.00800           0
      9112 MEMB     68       POPC     C315     CTL2    -0.180000       12.0110           0
      9113 MEMB     68       POPC     H15X     HAL2     0.900000E-01   1.00800           0
      9114 MEMB     68       POPC     H15Y     HAL2     0.900000E-01   1.00800           0
      9115 MEMB     68       POPC     C316     CTL3    -0.270000       12.0110           0
      9116 MEMB     68       POPC     H16X     HAL3     0.900000E-01   1.00800           0
      9117 MEMB     68       POPC     H16Y     HAL3     0.900000E-01   1.00800           0
      9118 MEMB     68       POPC     H16Z     HAL3     0.900000E-01   1.00800           0
      9119 MEMB     69       POPC     N        NTL     -0.600000       14.0070           0
      9120 MEMB     69       POPC     C12      CTL2    -0.100000       12.0110           0
      9121 MEMB     69       POPC     H12A     HL       0.250000       1.00800           0
      9122 MEMB     69       POPC     H12B     HL       0.250000       1.00800           0
      9123 MEMB     69       POPC     C13      CTL5    -0.350000       12.0110           0
      9124 MEMB     69       POPC     H13A     HL       0.250000       1.00800           0
      9125 MEMB     69       POPC     H13B     HL       0.250000       1.00800           0
      9126 MEMB     69       POPC     H13C     HL       0.250000       1.00800           0
      9127 MEMB     69       POPC     C14      CTL5    -0.350000       12.0110           0
      9128 MEMB     69       POPC     H14A     HL       0.250000       1.00800           0
      9129 MEMB     69       POPC     H14B     HL       0.250000       1.00800           0
      9130 MEMB     69       POPC     H14C     HL       0.250000       1.00800           0
      9131 MEMB     69       POPC     C15      CTL5    -0.350000       12.0110           0
      9132 MEMB     69       POPC     H15A     HL       0.250000       1.00800           0
      9133 MEMB     69       POPC     H15B     HL       0.250000       1.00800           0
      9134 MEMB     69       POPC     H15C     HL       0.250000       1.00800           0
      9135 MEMB     69       POPC     C11      CTL2    -0.800000E-01   12.0110           0
      9136 MEMB     69       POPC     H11A     HAL2     0.900000E-01   1.00800           0
      9137 MEMB     69       POPC     H11B     HAL2     0.900000E-01   1.00800           0
      9138 MEMB     69       POPC     P        PL        1.50000       30.9740           0
      9139 MEMB     69       POPC     O13      O2L     -0.780000       15.9994           0
      9140 MEMB     69       POPC     O14      O2L     -0.780000       15.9994           0
      9141 MEMB     69       POPC     O12      OSLP    -0.570000       15.9994           0
      9142 MEMB     69       POPC     O11      OSLP    -0.570000       15.9994           0
      9143 MEMB     69       POPC     C1       CTL2    -0.800000E-01   12.0110           0
      9144 MEMB     69       POPC     HA       HAL2     0.900000E-01   1.00800           0
      9145 MEMB     69       POPC     HB       HAL2     0.900000E-01   1.00800           0
      9146 MEMB     69       POPC     C2       CTL1     0.170000       12.0110           0
      9147 MEMB     69       POPC     HS       HAL1     0.900000E-01   1.00800           0
      9148 MEMB     69       POPC     O21      OSL     -0.490000       15.9994           0
      9149 MEMB     69       POPC     C21      CL       0.900000       12.0110           0
      9150 MEMB     69       POPC     O22      OBL     -0.630000       15.9994           0
      9151 MEMB     69       POPC     C22      CTL2    -0.220000       12.0110           0
      9152 MEMB     69       POPC     H2R      HAL2     0.900000E-01   1.00800           0
      9153 MEMB     69       POPC     H2S      HAL2     0.900000E-01   1.00800           0
      9154 MEMB     69       POPC     C3       CTL2     0.800000E-01   12.0110           0
      9155 MEMB     69       POPC     HX       HAL2     0.900000E-01   1.00800           0
      9156 MEMB     69       POPC     HY       HAL2     0.900000E-01   1.00800           0
      9157 MEMB     69       POPC     O31      OSL     -0.490000       15.9994           0
      9158 MEMB     69       POPC     C31      CL       0.900000       12.0110           0
      9159 MEMB     69       POPC     O32      OBL     -0.630000       15.9994           0
      9160 MEMB     69       POPC     C32      CTL2    -0.220000       12.0110           0
      9161 MEMB     69       POPC     H2X      HAL2     0.900000E-01   1.00800           0
      9162 MEMB     69       POPC     H2Y      HAL2     0.900000E-01   1.00800           0
      9163 MEMB     69       POPC     C23      CTL2    -0.180000       12.0110           0
      9164 MEMB     69       POPC     H3R      HAL2     0.900000E-01   1.00800           0
      9165 MEMB     69       POPC     H3S      HAL2     0.900000E-01   1.00800           0
      9166 MEMB     69       POPC     C24      CTL2    -0.180000       12.0110           0
      9167 MEMB     69       POPC     H4R      HAL2     0.900000E-01   1.00800           0
      9168 MEMB     69       POPC     H4S      HAL2     0.900000E-01   1.00800           0
      9169 MEMB     69       POPC     C25      CTL2    -0.180000       12.0110           0
      9170 MEMB     69       POPC     H5R      HAL2     0.900000E-01   1.00800           0
      9171 MEMB     69       POPC     H5S      HAL2     0.900000E-01   1.00800           0
      9172 MEMB     69       POPC     C26      CTL2    -0.180000       12.0110           0
      9173 MEMB     69       POPC     H6R      HAL2     0.900000E-01   1.00800           0
      9174 MEMB     69       POPC     H6S      HAL2     0.900000E-01   1.00800           0
      9175 MEMB     69       POPC     C27      CTL2    -0.180000       12.0110           0
      9176 MEMB     69       POPC     H7R      HAL2     0.900000E-01   1.00800           0
      9177 MEMB     69       POPC     H7S      HAL2     0.900000E-01   1.00800           0
      9178 MEMB     69       POPC     C28      CTL2    -0.180000       12.0110           0
      9179 MEMB     69       POPC     H8R      HAL2     0.900000E-01   1.00800           0
      9180 MEMB     69       POPC     H8S      HAL2     0.900000E-01   1.00800           0
      9181 MEMB     69       POPC     C29      CEL1    -0.150000       12.0110           0
      9182 MEMB     69       POPC     H91      HEL1     0.150000       1.00800           0
      9183 MEMB     69       POPC     C210     CEL1    -0.150000       12.0110           0
      9184 MEMB     69       POPC     H101     HEL1     0.150000       1.00800           0
      9185 MEMB     69       POPC     C211     CTL2    -0.180000       12.0110           0
      9186 MEMB     69       POPC     H11R     HAL2     0.900000E-01   1.00800           0
      9187 MEMB     69       POPC     H11S     HAL2     0.900000E-01   1.00800           0
      9188 MEMB     69       POPC     C212     CTL2    -0.180000       12.0110           0
      9189 MEMB     69       POPC     H12R     HAL2     0.900000E-01   1.00800           0
      9190 MEMB     69       POPC     H12S     HAL2     0.900000E-01   1.00800           0
      9191 MEMB     69       POPC     C213     CTL2    -0.180000       12.0110           0
      9192 MEMB     69       POPC     H13R     HAL2     0.900000E-01   1.00800           0
      9193 MEMB     69       POPC     H13S     HAL2     0.900000E-01   1.00800           0
      9194 MEMB     69       POPC     C214     CTL2    -0.180000       12.0110           0
      9195 MEMB     69       POPC     H14R     HAL2     0.900000E-01   1.00800           0
      9196 MEMB     69       POPC     H14S     HAL2     0.900000E-01   1.00800           0
      9197 MEMB     69       POPC     C215     CTL2    -0.180000       12.0110           0
      9198 MEMB     69       POPC     H15R     HAL2     0.900000E-01   1.00800           0
      9199 MEMB     69       POPC     H15S     HAL2     0.900000E-01   1.00800           0
      9200 MEMB     69       POPC     C216     CTL2    -0.180000       12.0110           0
      9201 MEMB     69       POPC     H16R     HAL2     0.900000E-01   1.00800           0
      9202 MEMB     69       POPC     H16S     HAL2     0.900000E-01   1.00800           0
      9203 MEMB     69       POPC     C217     CTL2    -0.180000       12.0110           0
      9204 MEMB     69       POPC     H17R     HAL2     0.900000E-01   1.00800           0
      9205 MEMB     69       POPC     H17S     HAL2     0.900000E-01   1.00800           0
      9206 MEMB     69       POPC     C218     CTL3    -0.270000       12.0110           0
      9207 MEMB     69       POPC     H18R     HAL3     0.900000E-01   1.00800           0
      9208 MEMB     69       POPC     H18S     HAL3     0.900000E-01   1.00800           0
      9209 MEMB     69       POPC     H18T     HAL3     0.900000E-01   1.00800           0
      9210 MEMB     69       POPC     C33      CTL2    -0.180000       12.0110           0
      9211 MEMB     69       POPC     H3X      HAL2     0.900000E-01   1.00800           0
      9212 MEMB     69       POPC     H3Y      HAL2     0.900000E-01   1.00800           0
      9213 MEMB     69       POPC     C34      CTL2    -0.180000       12.0110           0
      9214 MEMB     69       POPC     H4X      HAL2     0.900000E-01   1.00800           0
      9215 MEMB     69       POPC     H4Y      HAL2     0.900000E-01   1.00800           0
      9216 MEMB     69       POPC     C35      CTL2    -0.180000       12.0110           0
      9217 MEMB     69       POPC     H5X      HAL2     0.900000E-01   1.00800           0
      9218 MEMB     69       POPC     H5Y      HAL2     0.900000E-01   1.00800           0
      9219 MEMB     69       POPC     C36      CTL2    -0.180000       12.0110           0
      9220 MEMB     69       POPC     H6X      HAL2     0.900000E-01   1.00800           0
      9221 MEMB     69       POPC     H6Y      HAL2     0.900000E-01   1.00800           0
      9222 MEMB     69       POPC     C37      CTL2    -0.180000       12.0110           0
      9223 MEMB     69       POPC     H7X      HAL2     0.900000E-01   1.00800           0
      9224 MEMB     69       POPC     H7Y      HAL2     0.900000E-01   1.00800           0
      9225 MEMB     69       POPC     C38      CTL2    -0.180000       12.0110           0
      9226 MEMB     69       POPC     H8X      HAL2     0.900000E-01   1.00800           0
      9227 MEMB     69       POPC     H8Y      HAL2     0.900000E-01   1.00800           0
      9228 MEMB     69       POPC     C39      CTL2    -0.180000       12.0110           0
      9229 MEMB     69       POPC     H9X      HAL2     0.900000E-01   1.00800           0
      9230 MEMB     69       POPC     H9Y      HAL2     0.900000E-01   1.00800           0
      9231 MEMB     69       POPC     C310     CTL2    -0.180000       12.0110           0
      9232 MEMB     69       POPC     H10X     HAL2     0.900000E-01   1.00800           0
      9233 MEMB     69       POPC     H10Y     HAL2     0.900000E-01   1.00800           0
      9234 MEMB     69       POPC     C311     CTL2    -0.180000       12.0110           0
      9235 MEMB     69       POPC     H11X     HAL2     0.900000E-01   1.00800           0
      9236 MEMB     69       POPC     H11Y     HAL2     0.900000E-01   1.00800           0
      9237 MEMB     69       POPC     C312     CTL2    -0.180000       12.0110           0
      9238 MEMB     69       POPC     H12X     HAL2     0.900000E-01   1.00800           0
      9239 MEMB     69       POPC     H12Y     HAL2     0.900000E-01   1.00800           0
      9240 MEMB     69       POPC     C313     CTL2    -0.180000       12.0110           0
      9241 MEMB     69       POPC     H13X     HAL2     0.900000E-01   1.00800           0
      9242 MEMB     69       POPC     H13Y     HAL2     0.900000E-01   1.00800           0
      9243 MEMB     69       POPC     C314     CTL2    -0.180000       12.0110           0
      9244 MEMB     69       POPC     H14X     HAL2     0.900000E-01   1.00800           0
      9245 MEMB     69       POPC     H14Y     HAL2     0.900000E-01   1.00800           0
      9246 MEMB     69       POPC     C315     CTL2    -0.180000       12.0110           0
      9247 MEMB     69       POPC     H15X     HAL2     0.900000E-01   1.00800           0
      9248 MEMB     69       POPC     H15Y     HAL2     0.900000E-01   1.00800           0
      9249 MEMB     69       POPC     C316     CTL3    -0.270000       12.0110           0
      9250 MEMB     69       POPC     H16X     HAL3     0.900000E-01   1.00800           0
      9251 MEMB     69       POPC     H16Y     HAL3     0.900000E-01   1.00800           0
      9252 MEMB     69       POPC     H16Z     HAL3     0.900000E-01   1.00800           0
      9253 MEMB     70       POPC     N        NTL     -0.600000       14.0070           0
      9254 MEMB     70       POPC     C12      CTL2    -0.100000       12.0110           0
      9255 MEMB     70       POPC     H12A     HL       0.250000       1.00800           0
      9256 MEMB     70       POPC     H12B     HL       0.250000       1.00800           0
      9257 MEMB     70       POPC     C13      CTL5    -0.350000       12.0110           0
      9258 MEMB     70       POPC     H13A     HL       0.250000       1.00800           0
      9259 MEMB     70       POPC     H13B     HL       0.250000       1.00800           0
      9260 MEMB     70       POPC     H13C     HL       0.250000       1.00800           0
      9261 MEMB     70       POPC     C14      CTL5    -0.350000       12.0110           0
      9262 MEMB     70       POPC     H14A     HL       0.250000       1.00800           0
      9263 MEMB     70       POPC     H14B     HL       0.250000       1.00800           0
      9264 MEMB     70       POPC     H14C     HL       0.250000       1.00800           0
      9265 MEMB     70       POPC     C15      CTL5    -0.350000       12.0110           0
      9266 MEMB     70       POPC     H15A     HL       0.250000       1.00800           0
      9267 MEMB     70       POPC     H15B     HL       0.250000       1.00800           0
      9268 MEMB     70       POPC     H15C     HL       0.250000       1.00800           0
      9269 MEMB     70       POPC     C11      CTL2    -0.800000E-01   12.0110           0
      9270 MEMB     70       POPC     H11A     HAL2     0.900000E-01   1.00800           0
      9271 MEMB     70       POPC     H11B     HAL2     0.900000E-01   1.00800           0
      9272 MEMB     70       POPC     P        PL        1.50000       30.9740           0
      9273 MEMB     70       POPC     O13      O2L     -0.780000       15.9994           0
      9274 MEMB     70       POPC     O14      O2L     -0.780000       15.9994           0
      9275 MEMB     70       POPC     O12      OSLP    -0.570000       15.9994           0
      9276 MEMB     70       POPC     O11      OSLP    -0.570000       15.9994           0
      9277 MEMB     70       POPC     C1       CTL2    -0.800000E-01   12.0110           0
      9278 MEMB     70       POPC     HA       HAL2     0.900000E-01   1.00800           0
      9279 MEMB     70       POPC     HB       HAL2     0.900000E-01   1.00800           0
      9280 MEMB     70       POPC     C2       CTL1     0.170000       12.0110           0
      9281 MEMB     70       POPC     HS       HAL1     0.900000E-01   1.00800           0
      9282 MEMB     70       POPC     O21      OSL     -0.490000       15.9994           0
      9283 MEMB     70       POPC     C21      CL       0.900000       12.0110           0
      9284 MEMB     70       POPC     O22      OBL     -0.630000       15.9994           0
      9285 MEMB     70       POPC     C22      CTL2    -0.220000       12.0110           0
      9286 MEMB     70       POPC     H2R      HAL2     0.900000E-01   1.00800           0
      9287 MEMB     70       POPC     H2S      HAL2     0.900000E-01   1.00800           0
      9288 MEMB     70       POPC     C3       CTL2     0.800000E-01   12.0110           0
      9289 MEMB     70       POPC     HX       HAL2     0.900000E-01   1.00800           0
      9290 MEMB     70       POPC     HY       HAL2     0.900000E-01   1.00800           0
      9291 MEMB     70       POPC     O31      OSL     -0.490000       15.9994           0
      9292 MEMB     70       POPC     C31      CL       0.900000       12.0110           0
      9293 MEMB     70       POPC     O32      OBL     -0.630000       15.9994           0
      9294 MEMB     70       POPC     C32      CTL2    -0.220000       12.0110           0
      9295 MEMB     70       POPC     H2X      HAL2     0.900000E-01   1.00800           0
      9296 MEMB     70       POPC     H2Y      HAL2     0.900000E-01   1.00800           0
      9297 MEMB     70       POPC     C23      CTL2    -0.180000       12.0110           0
      9298 MEMB     70       POPC     H3R      HAL2     0.900000E-01   1.00800           0
      9299 MEMB     70       POPC     H3S      HAL2     0.900000E-01   1.00800           0
      9300 MEMB     70       POPC     C24      CTL2    -0.180000       12.0110           0
      9301 MEMB     70       POPC     H4R      HAL2     0.900000E-01   1.00800           0
      9302 MEMB     70       POPC     H4S      HAL2     0.900000E-01   1.00800           0
      9303 MEMB     70       POPC     C25      CTL2    -0.180000       12.0110           0
      9304 MEMB     70       POPC     H5R      HAL2     0.900000E-01   1.00800           0
      9305 MEMB     70       POPC     H5S      HAL2     0.900000E-01   1.00800           0
      9306 MEMB     70       POPC     C26      CTL2    -0.180000       12.0110           0
      9307 MEMB     70       POPC     H6R      HAL2     0.900000E-01   1.00800           0
      9308 MEMB     70       POPC     H6S      HAL2     0.900000E-01   1.00800           0
      9309 MEMB     70       POPC     C27      CTL2    -0.180000       12.0110           0
      9310 MEMB     70       POPC     H7R      HAL2     0.900000E-01   1.00800           0
      9311 MEMB     70       POPC     H7S      HAL2     0.900000E-01   1.00800           0
      9312 MEMB     70       POPC     C28      CTL2    -0.180000       12.0110           0
      9313 MEMB     70       POPC     H8R      HAL2     0.900000E-01   1.00800           0
      9314 MEMB     70       POPC     H8S      HAL2     0.900000E-01   1.00800           0
      9315 MEMB     70       POPC     C29      CEL1    -0.150000       12.0110           0
      9316 MEMB     70       POPC     H91      HEL1     0.150000       1.00800           0
      9317 MEMB     70       POPC     C210     CEL1    -0.150000       12.0110           0
      9318 MEMB     70       POPC     H101     HEL1     0.150000       1.00800           0
      9319 MEMB     70       POPC     C211     CTL2    -0.180000       12.0110           0
      9320 MEMB     70       POPC     H11R     HAL2     0.900000E-01   1.00800           0
      9321 MEMB     70       POPC     H11S     HAL2     0.900000E-01   1.00800           0
      9322 MEMB     70       POPC     C212     CTL2    -0.180000       12.0110           0
      9323 MEMB     70       POPC     H12R     HAL2     0.900000E-01   1.00800           0
      9324 MEMB     70       POPC     H12S     HAL2     0.900000E-01   1.00800           0
      9325 MEMB     70       POPC     C213     CTL2    -0.180000       12.0110           0
      9326 MEMB     70       POPC     H13R     HAL2     0.900000E-01   1.00800           0
      9327 MEMB     70       POPC     H13S     HAL2     0.900000E-01   1.00800           0
      9328 MEMB     70       POPC     C214     CTL2    -0.180000       12.0110           0
      9329 MEMB     70       POPC     H14R     HAL2     0.900000E-01   1.00800           0
      9330 MEMB     70       POPC     H14S     HAL2     0.900000E-01   1.00800           0
      9331 MEMB     70       POPC     C215     CTL2    -0.180000       12.0110           0
      9332 MEMB     70       POPC     H15R     HAL2     0.900000E-01   1.00800           0
      9333 MEMB     70       POPC     H15S     HAL2     0.900000E-01   1.00800           0
      9334 MEMB     70       POPC     C216     CTL2    -0.180000       12.0110           0
      9335 MEMB     70       POPC     H16R     HAL2     0.900000E-01   1.00800           0
      9336 MEMB     70       POPC     H16S     HAL2     0.900000E-01   1.00800           0
      9337 MEMB     70       POPC     C217     CTL2    -0.180000       12.0110           0
      9338 MEMB     70       POPC     H17R     HAL2     0.900000E-01   1.00800           0
      9339 MEMB     70       POPC     H17S     HAL2     0.900000E-01   1.00800           0
      9340 MEMB     70       POPC     C218     CTL3    -0.270000       12.0110           0
      9341 MEMB     70       POPC     H18R     HAL3     0.900000E-01   1.00800           0
      9342 MEMB     70       POPC     H18S     HAL3     0.900000E-01   1.00800           0
      9343 MEMB     70       POPC     H18T     HAL3     0.900000E-01   1.00800           0
      9344 MEMB     70       POPC     C33      CTL2    -0.180000       12.0110           0
      9345 MEMB     70       POPC     H3X      HAL2     0.900000E-01   1.00800           0
      9346 MEMB     70       POPC     H3Y      HAL2     0.900000E-01   1.00800           0
      9347 MEMB     70       POPC     C34      CTL2    -0.180000       12.0110           0
      9348 MEMB     70       POPC     H4X      HAL2     0.900000E-01   1.00800           0
      9349 MEMB     70       POPC     H4Y      HAL2     0.900000E-01   1.00800           0
      9350 MEMB     70       POPC     C35      CTL2    -0.180000       12.0110           0
      9351 MEMB     70       POPC     H5X      HAL2     0.900000E-01   1.00800           0
      9352 MEMB     70       POPC     H5Y      HAL2     0.900000E-01   1.00800           0
      9353 MEMB     70       POPC     C36      CTL2    -0.180000       12.0110           0
      9354 MEMB     70       POPC     H6X      HAL2     0.900000E-01   1.00800           0
      9355 MEMB     70       POPC     H6Y      HAL2     0.900000E-01   1.00800           0
      9356 MEMB     70       POPC     C37      CTL2    -0.180000       12.0110           0
      9357 MEMB     70       POPC     H7X      HAL2     0.900000E-01   1.00800           0
      9358 MEMB     70       POPC     H7Y      HAL2     0.900000E-01   1.00800           0
      9359 MEMB     70       POPC     C38      CTL2    -0.180000       12.0110           0
      9360 MEMB     70       POPC     H8X      HAL2     0.900000E-01   1.00800           0
      9361 MEMB     70       POPC     H8Y      HAL2     0.900000E-01   1.00800           0
      9362 MEMB     70       POPC     C39      CTL2    -0.180000       12.0110           0
      9363 MEMB     70       POPC     H9X      HAL2     0.900000E-01   1.00800           0
      9364 MEMB     70       POPC     H9Y      HAL2     0.900000E-01   1.00800           0
      9365 MEMB     70       POPC     C310     CTL2    -0.180000       12.0110           0
      9366 MEMB     70       POPC     H10X     HAL2     0.900000E-01   1.00800           0
      9367 MEMB     70       POPC     H10Y     HAL2     0.900000E-01   1.00800           0
      9368 MEMB     70       POPC     C311     CTL2    -0.180000       12.0110           0
      9369 MEMB     70       POPC     H11X     HAL2     0.900000E-01   1.00800           0
      9370 MEMB     70       POPC     H11Y     HAL2     0.900000E-01   1.00800           0
      9371 MEMB     70       POPC     C312     CTL2    -0.180000       12.0110           0
      9372 MEMB     70       POPC     H12X     HAL2     0.900000E-01   1.00800           0
      9373 MEMB     70       POPC     H12Y     HAL2     0.900000E-01   1.00800           0
      9374 MEMB     70       POPC     C313     CTL2    -0.180000       12.0110           0
      9375 MEMB     70       POPC     H13X     HAL2     0.900000E-01   1.00800           0
      9376 MEMB     70       POPC     H13Y     HAL2     0.900000E-01   1.00800           0
      9377 MEMB     70       POPC     C314     CTL2    -0.180000       12.0110           0
      9378 MEMB     70       POPC     H14X     HAL2     0.900000E-01   1.00800           0
      9379 MEMB     70       POPC     H14Y     HAL2     0.900000E-01   1.00800           0
      9380 MEMB     70       POPC     C315     CTL2    -0.180000       12.0110           0
      9381 MEMB     70       POPC     H15X     HAL2     0.900000E-01   1.00800           0
      9382 MEMB     70       POPC     H15Y     HAL2     0.900000E-01   1.00800           0
      9383 MEMB     70       POPC     C316     CTL3    -0.270000       12.0110           0
      9384 MEMB     70       POPC     H16X     HAL3     0.900000E-01   1.00800           0
      9385 MEMB     70       POPC     H16Y     HAL3     0.900000E-01   1.00800           0
      9386 MEMB     70       POPC     H16Z     HAL3     0.900000E-01   1.00800           0
      9387 MEMB     71       POPC     N        NTL     -0.600000       14.0070           0
      9388 MEMB     71       POPC     C12      CTL2    -0.100000       12.0110           0
      9389 MEMB     71       POPC     H12A     HL       0.250000       1.00800           0
      9390 MEMB     71       POPC     H12B     HL       0.250000       1.00800           0
      9391 MEMB     71       POPC     C13      CTL5    -0.350000       12.0110           0
      9392 MEMB     71       POPC     H13A     HL       0.250000       1.00800           0
      9393 MEMB     71       POPC     H13B     HL       0.250000       1.00800           0
      9394 MEMB     71       POPC     H13C     HL       0.250000       1.00800           0
      9395 MEMB     71       POPC     C14      CTL5    -0.350000       12.0110           0
      9396 MEMB     71       POPC     H14A     HL       0.250000       1.00800           0
      9397 MEMB     71       POPC     H14B     HL       0.250000       1.00800           0
      9398 MEMB     71       POPC     H14C     HL       0.250000       1.00800           0
      9399 MEMB     71       POPC     C15      CTL5    -0.350000       12.0110           0
      9400 MEMB     71       POPC     H15A     HL       0.250000       1.00800           0
      9401 MEMB     71       POPC     H15B     HL       0.250000       1.00800           0
      9402 MEMB     71       POPC     H15C     HL       0.250000       1.00800           0
      9403 MEMB     71       POPC     C11      CTL2    -0.800000E-01   12.0110           0
      9404 MEMB     71       POPC     H11A     HAL2     0.900000E-01   1.00800           0
      9405 MEMB     71       POPC     H11B     HAL2     0.900000E-01   1.00800           0
      9406 MEMB     71       POPC     P        PL        1.50000       30.9740           0
      9407 MEMB     71       POPC     O13      O2L     -0.780000       15.9994           0
      9408 MEMB     71       POPC     O14      O2L     -0.780000       15.9994           0
      9409 MEMB     71       POPC     O12      OSLP    -0.570000       15.9994           0
      9410 MEMB     71       POPC     O11      OSLP    -0.570000       15.9994           0
      9411 MEMB     71       POPC     C1       CTL2    -0.800000E-01   12.0110           0
      9412 MEMB     71       POPC     HA       HAL2     0.900000E-01   1.00800           0
      9413 MEMB     71       POPC     HB       HAL2     0.900000E-01   1.00800           0
      9414 MEMB     71       POPC     C2       CTL1     0.170000       12.0110           0
      9415 MEMB     71       POPC     HS       HAL1     0.900000E-01   1.00800           0
      9416 MEMB     71       POPC     O21      OSL     -0.490000       15.9994           0
      9417 MEMB     71       POPC     C21      CL       0.900000       12.0110           0
      9418 MEMB     71       POPC     O22      OBL     -0.630000       15.9994           0
      9419 MEMB     71       POPC     C22      CTL2    -0.220000       12.0110           0
      9420 MEMB     71       POPC     H2R      HAL2     0.900000E-01   1.00800           0
      9421 MEMB     71       POPC     H2S      HAL2     0.900000E-01   1.00800           0
      9422 MEMB     71       POPC     C3       CTL2     0.800000E-01   12.0110           0
      9423 MEMB     71       POPC     HX       HAL2     0.900000E-01   1.00800           0
      9424 MEMB     71       POPC     HY       HAL2     0.900000E-01   1.00800           0
      9425 MEMB     71       POPC     O31      OSL     -0.490000       15.9994           0
      9426 MEMB     71       POPC     C31      CL       0.900000       12.0110           0
      9427 MEMB     71       POPC     O32      OBL     -0.630000       15.9994           0
      9428 MEMB     71       POPC     C32      CTL2    -0.220000       12.0110           0
      9429 MEMB     71       POPC     H2X      HAL2     0.900000E-01   1.00800           0
      9430 MEMB     71       POPC     H2Y      HAL2     0.900000E-01   1.00800           0
      9431 MEMB     71       POPC     C23      CTL2    -0.180000       12.0110           0
      9432 MEMB     71       POPC     H3R      HAL2     0.900000E-01   1.00800           0
      9433 MEMB     71       POPC     H3S      HAL2     0.900000E-01   1.00800           0
      9434 MEMB     71       POPC     C24      CTL2    -0.180000       12.0110           0
      9435 MEMB     71       POPC     H4R      HAL2     0.900000E-01   1.00800           0
      9436 MEMB     71       POPC     H4S      HAL2     0.900000E-01   1.00800           0
      9437 MEMB     71       POPC     C25      CTL2    -0.180000       12.0110           0
      9438 MEMB     71       POPC     H5R      HAL2     0.900000E-01   1.00800           0
      9439 MEMB     71       POPC     H5S      HAL2     0.900000E-01   1.00800           0
      9440 MEMB     71       POPC     C26      CTL2    -0.180000       12.0110           0
      9441 MEMB     71       POPC     H6R      HAL2     0.900000E-01   1.00800           0
      9442 MEMB     71       POPC     H6S      HAL2     0.900000E-01   1.00800           0
      9443 MEMB     71       POPC     C27      CTL2    -0.180000       12.0110           0
      9444 MEMB     71       POPC     H7R      HAL2     0.900000E-01   1.00800           0
      9445 MEMB     71       POPC     H7S      HAL2     0.900000E-01   1.00800           0
      9446 MEMB     71       POPC     C28      CTL2    -0.180000       12.0110           0
      9447 MEMB     71       POPC     H8R      HAL2     0.900000E-01   1.00800           0
      9448 MEMB     71       POPC     H8S      HAL2     0.900000E-01   1.00800           0
      9449 MEMB     71       POPC     C29      CEL1    -0.150000       12.0110           0
      9450 MEMB     71       POPC     H91      HEL1     0.150000       1.00800           0
      9451 MEMB     71       POPC     C210     CEL1    -0.150000       12.0110           0
      9452 MEMB     71       POPC     H101     HEL1     0.150000       1.00800           0
      9453 MEMB     71       POPC     C211     CTL2    -0.180000       12.0110           0
      9454 MEMB     71       POPC     H11R     HAL2     0.900000E-01   1.00800           0
      9455 MEMB     71       POPC     H11S     HAL2     0.900000E-01   1.00800           0
      9456 MEMB     71       POPC     C212     CTL2    -0.180000       12.0110           0
      9457 MEMB     71       POPC     H12R     HAL2     0.900000E-01   1.00800           0
      9458 MEMB     71       POPC     H12S     HAL2     0.900000E-01   1.00800           0
      9459 MEMB     71       POPC     C213     CTL2    -0.180000       12.0110           0
      9460 MEMB     71       POPC     H13R     HAL2     0.900000E-01   1.00800           0
      9461 MEMB     71       POPC     H13S     HAL2     0.900000E-01   1.00800           0
      9462 MEMB     71       POPC     C214     CTL2    -0.180000       12.0110           0
      9463 MEMB     71       POPC     H14R     HAL2     0.900000E-01   1.00800           0
      9464 MEMB     71       POPC     H14S     HAL2     0.900000E-01   1.00800           0
      9465 MEMB     71       POPC     C215     CTL2    -0.180000       12.0110           0
      9466 MEMB     71       POPC     H15R     HAL2     0.900000E-01   1.00800           0
      9467 MEMB     71       POPC     H15S     HAL2     0.900000E-01   1.00800           0
      9468 MEMB     71       POPC     C216     CTL2    -0.180000       12.0110           0
      9469 MEMB     71       POPC     H16R     HAL2     0.900000E-01   1.00800           0
      9470 MEMB     71       POPC     H16S     HAL2     0.900000E-01   1.00800           0
      9471 MEMB     71       POPC     C217     CTL2    -0.180000       12.0110           0
      9472 MEMB     71       POPC     H17R     HAL2     0.900000E-01   1.00800           0
      9473 MEMB     71       POPC     H17S     HAL2     0.900000E-01   1.00800           0
      9474 MEMB     71       POPC     C218     CTL3    -0.270000       12.0110           0
      9475 MEMB     71       POPC     H18R     HAL3     0.900000E-01   1.00800           0
      9476 MEMB     71       POPC     H18S     HAL3     0.900000E-01   1.00800           0
      9477 MEMB     71       POPC     H18T     HAL3     0.900000E-01   1.00800           0
      9478 MEMB     71       POPC     C33      CTL2    -0.180000       12.0110           0
      9479 MEMB     71       POPC     H3X      HAL2     0.900000E-01   1.00800           0
      9480 MEMB     71       POPC     H3Y      HAL2     0.900000E-01   1.00800           0
      9481 MEMB     71       POPC     C34      CTL2    -0.180000       12.0110           0
      9482 MEMB     71       POPC     H4X      HAL2     0.900000E-01   1.00800           0
      9483 MEMB     71       POPC     H4Y      HAL2     0.900000E-01   1.00800           0
      9484 MEMB     71       POPC     C35      CTL2    -0.180000       12.0110           0
      9485 MEMB     71       POPC     H5X      HAL2     0.900000E-01   1.00800           0
      9486 MEMB     71       POPC     H5Y      HAL2     0.900000E-01   1.00800           0
      9487 MEMB     71       POPC     C36      CTL2    -0.180000       12.0110           0
      9488 MEMB     71       POPC     H6X      HAL2     0.900000E-01   1.00800           0
      9489 MEMB     71       POPC     H6Y      HAL2     0.900000E-01   1.00800           0
      9490 MEMB     71       POPC     C37      CTL2    -0.180000       12.0110           0
      9491 MEMB     71       POPC     H7X      HAL2     0.900000E-01   1.00800           0
      9492 MEMB     71       POPC     H7Y      HAL2     0.900000E-01   1.00800           0
      9493 MEMB     71       POPC     C38      CTL2    -0.180000       12.0110           0
      9494 MEMB     71       POPC     H8X      HAL2     0.900000E-01   1.00800           0
      9495 MEMB     71       POPC     H8Y      HAL2     0.900000E-01   1.00800           0
      9496 MEMB     71       POPC     C39      CTL2    -0.180000       12.0110           0
      9497 MEMB     71       POPC     H9X      HAL2     0.900000E-01   1.00800           0
      9498 MEMB     71       POPC     H9Y      HAL2     0.900000E-01   1.00800           0
      9499 MEMB     71       POPC     C310     CTL2    -0.180000       12.0110           0
      9500 MEMB     71       POPC     H10X     HAL2     0.900000E-01   1.00800           0
      9501 MEMB     71       POPC     H10Y     HAL2     0.900000E-01   1.00800           0
      9502 MEMB     71       POPC     C311     CTL2    -0.180000       12.0110           0
      9503 MEMB     71       POPC     H11X     HAL2     0.900000E-01   1.00800           0
      9504 MEMB     71       POPC     H11Y     HAL2     0.900000E-01   1.00800           0
      9505 MEMB     71       POPC     C312     CTL2    -0.180000       12.0110           0
      9506 MEMB     71       POPC     H12X     HAL2     0.900000E-01   1.00800           0
      9507 MEMB     71       POPC     H12Y     HAL2     0.900000E-01   1.00800           0
      9508 MEMB     71       POPC     C313     CTL2    -0.180000       12.0110           0
      9509 MEMB     71       POPC     H13X     HAL2     0.900000E-01   1.00800           0
      9510 MEMB     71       POPC     H13Y     HAL2     0.900000E-01   1.00800           0
      9511 MEMB     71       POPC     C314     CTL2    -0.180000       12.0110           0
      9512 MEMB     71       POPC     H14X     HAL2     0.900000E-01   1.00800           0
      9513 MEMB     71       POPC     H14Y     HAL2     0.900000E-01   1.00800           0
      9514 MEMB     71       POPC     C315     CTL2    -0.180000       12.0110           0
      9515 MEMB     71       POPC     H15X     HAL2     0.900000E-01   1.00800           0
      9516 MEMB     71       POPC     H15Y     HAL2     0.900000E-01   1.00800           0
      9517 MEMB     71       POPC     C316     CTL3    -0.270000       12.0110           0
      9518 MEMB     71       POPC     H16X     HAL3     0.900000E-01   1.00800           0
      9519 MEMB     71       POPC     H16Y     HAL3     0.900000E-01   1.00800           0
      9520 MEMB     71       POPC     H16Z     HAL3     0.900000E-01   1.00800           0
      9521 MEMB     72       POPS     N        NH3L    -0.300000       14.0070           0
      9522 MEMB     72       POPS     HN1      HCL      0.330000       1.00800           0
      9523 MEMB     72       POPS     HN2      HCL      0.330000       1.00800           0
      9524 MEMB     72       POPS     HN3      HCL      0.330000       1.00800           0
      9525 MEMB     72       POPS     C12      CTL1     0.210000       12.0110           0
      9526 MEMB     72       POPS     H12A     HBL      0.100000       1.00800           0
      9527 MEMB     72       POPS     C13      CCL      0.340000       12.0110           0
      9528 MEMB     72       POPS     O13A     OCL     -0.670000       15.9994           0
      9529 MEMB     72       POPS     O13B     OCL     -0.670000       15.9994           0
      9530 MEMB     72       POPS     C11      CTL2    -0.800000E-01   12.0110           0
      9531 MEMB     72       POPS     H11A     HAL2     0.900000E-01   1.00800           0
      9532 MEMB     72       POPS     H11B     HAL2     0.900000E-01   1.00800           0
      9533 MEMB     72       POPS     P        PL        1.50000       30.9740           0
      9534 MEMB     72       POPS     O13      O2L     -0.780000       15.9994           0
      9535 MEMB     72       POPS     O14      O2L     -0.780000       15.9994           0
      9536 MEMB     72       POPS     O12      OSLP    -0.570000       15.9994           0
      9537 MEMB     72       POPS     O11      OSLP    -0.570000       15.9994           0
      9538 MEMB     72       POPS     C1       CTL2    -0.800000E-01   12.0110           0
      9539 MEMB     72       POPS     HA       HAL2     0.900000E-01   1.00800           0
      9540 MEMB     72       POPS     HB       HAL2     0.900000E-01   1.00800           0
      9541 MEMB     72       POPS     C2       CTL1     0.170000       12.0110           0
      9542 MEMB     72       POPS     HS       HAL1     0.900000E-01   1.00800           0
      9543 MEMB     72       POPS     O21      OSL     -0.490000       15.9994           0
      9544 MEMB     72       POPS     C21      CL       0.900000       12.0110           0
      9545 MEMB     72       POPS     O22      OBL     -0.630000       15.9994           0
      9546 MEMB     72       POPS     C22      CTL2    -0.220000       12.0110           0
      9547 MEMB     72       POPS     H2R      HAL2     0.900000E-01   1.00800           0
      9548 MEMB     72       POPS     H2S      HAL2     0.900000E-01   1.00800           0
      9549 MEMB     72       POPS     C3       CTL2     0.800000E-01   12.0110           0
      9550 MEMB     72       POPS     HX       HAL2     0.900000E-01   1.00800           0
      9551 MEMB     72       POPS     HY       HAL2     0.900000E-01   1.00800           0
      9552 MEMB     72       POPS     O31      OSL     -0.490000       15.9994           0
      9553 MEMB     72       POPS     C31      CL       0.900000       12.0110           0
      9554 MEMB     72       POPS     O32      OBL     -0.630000       15.9994           0
      9555 MEMB     72       POPS     C32      CTL2    -0.220000       12.0110           0
      9556 MEMB     72       POPS     H2X      HAL2     0.900000E-01   1.00800           0
      9557 MEMB     72       POPS     H2Y      HAL2     0.900000E-01   1.00800           0
      9558 MEMB     72       POPS     C23      CTL2    -0.180000       12.0110           0
      9559 MEMB     72       POPS     H3R      HAL2     0.900000E-01   1.00800           0
      9560 MEMB     72       POPS     H3S      HAL2     0.900000E-01   1.00800           0
      9561 MEMB     72       POPS     C24      CTL2    -0.180000       12.0110           0
      9562 MEMB     72       POPS     H4R      HAL2     0.900000E-01   1.00800           0
      9563 MEMB     72       POPS     H4S      HAL2     0.900000E-01   1.00800           0
      9564 MEMB     72       POPS     C25      CTL2    -0.180000       12.0110           0
      9565 MEMB     72       POPS     H5R      HAL2     0.900000E-01   1.00800           0
      9566 MEMB     72       POPS     H5S      HAL2     0.900000E-01   1.00800           0
      9567 MEMB     72       POPS     C26      CTL2    -0.180000       12.0110           0
      9568 MEMB     72       POPS     H6R      HAL2     0.900000E-01   1.00800           0
      9569 MEMB     72       POPS     H6S      HAL2     0.900000E-01   1.00800           0
      9570 MEMB     72       POPS     C27      CTL2    -0.180000       12.0110           0
      9571 MEMB     72       POPS     H7R      HAL2     0.900000E-01   1.00800           0
      9572 MEMB     72       POPS     H7S      HAL2     0.900000E-01   1.00800           0
      9573 MEMB     72       POPS     C28      CTL2    -0.180000       12.0110           0
      9574 MEMB     72       POPS     H8R      HAL2     0.900000E-01   1.00800           0
      9575 MEMB     72       POPS     H8S      HAL2     0.900000E-01   1.00800           0
      9576 MEMB     72       POPS     C29      CEL1    -0.150000       12.0110           0
      9577 MEMB     72       POPS     H91      HEL1     0.150000       1.00800           0
      9578 MEMB     72       POPS     C210     CEL1    -0.150000       12.0110           0
      9579 MEMB     72       POPS     H101     HEL1     0.150000       1.00800           0
      9580 MEMB     72       POPS     C211     CTL2    -0.180000       12.0110           0
      9581 MEMB     72       POPS     H11R     HAL2     0.900000E-01   1.00800           0
      9582 MEMB     72       POPS     H11S     HAL2     0.900000E-01   1.00800           0
      9583 MEMB     72       POPS     C212     CTL2    -0.180000       12.0110           0
      9584 MEMB     72       POPS     H12R     HAL2     0.900000E-01   1.00800           0
      9585 MEMB     72       POPS     H12S     HAL2     0.900000E-01   1.00800           0
      9586 MEMB     72       POPS     C213     CTL2    -0.180000       12.0110           0
      9587 MEMB     72       POPS     H13R     HAL2     0.900000E-01   1.00800           0
      9588 MEMB     72       POPS     H13S     HAL2     0.900000E-01   1.00800           0
      9589 MEMB     72       POPS     C214     CTL2    -0.180000       12.0110           0
      9590 MEMB     72       POPS     H14R     HAL2     0.900000E-01   1.00800           0
      9591 MEMB     72       POPS     H14S     HAL2     0.900000E-01   1.00800           0
      9592 MEMB     72       POPS     C215     CTL2    -0.180000       12.0110           0
      9593 MEMB     72       POPS     H15R     HAL2     0.900000E-01   1.00800           0
      9594 MEMB     72       POPS     H15S     HAL2     0.900000E-01   1.00800           0
      9595 MEMB     72       POPS     C216     CTL2    -0.180000       12.0110           0
      9596 MEMB     72       POPS     H16R     HAL2     0.900000E-01   1.00800           0
      9597 MEMB     72       POPS     H16S     HAL2     0.900000E-01   1.00800           0
      9598 MEMB     72       POPS     C217     CTL2    -0.180000       12.0110           0
      9599 MEMB     72       POPS     H17R     HAL2     0.900000E-01   1.00800           0
      9600 MEMB     72       POPS     H17S     HAL2     0.900000E-01   1.00800           0
      9601 MEMB     72       POPS     C218     CTL3    -0.270000       12.0110           0
      9602 MEMB     72       POPS     H18R     HAL3     0.900000E-01   1.00800           0
      9603 MEMB     72       POPS     H18S     HAL3     0.900000E-01   1.00800           0
      9604 MEMB     72       POPS     H18T     HAL3     0.900000E-01   1.00800           0
      9605 MEMB     72       POPS     C33      CTL2    -0.180000       12.0110           0
      9606 MEMB     72       POPS     H3X      HAL2     0.900000E-01   1.00800           0
      9607 MEMB     72       POPS     H3Y      HAL2     0.900000E-01   1.00800           0
      9608 MEMB     72       POPS     C34      CTL2    -0.180000       12.0110           0
      9609 MEMB     72       POPS     H4X      HAL2     0.900000E-01   1.00800           0
      9610 MEMB     72       POPS     H4Y      HAL2     0.900000E-01   1.00800           0
      9611 MEMB     72       POPS     C35      CTL2    -0.180000       12.0110           0
      9612 MEMB     72       POPS     H5X      HAL2     0.900000E-01   1.00800           0
      9613 MEMB     72       POPS     H5Y      HAL2     0.900000E-01   1.00800           0
      9614 MEMB     72       POPS     C36      CTL2    -0.180000       12.0110           0
      9615 MEMB     72       POPS     H6X      HAL2     0.900000E-01   1.00800           0
      9616 MEMB     72       POPS     H6Y      HAL2     0.900000E-01   1.00800           0
      9617 MEMB     72       POPS     C37      CTL2    -0.180000       12.0110           0
      9618 MEMB     72       POPS     H7X      HAL2     0.900000E-01   1.00800           0
      9619 MEMB     72       POPS     H7Y      HAL2     0.900000E-01   1.00800           0
      9620 MEMB     72       POPS     C38      CTL2    -0.180000       12.0110           0
      9621 MEMB     72       POPS     H8X      HAL2     0.900000E-01   1.00800           0
      9622 MEMB     72       POPS     H8Y      HAL2     0.900000E-01   1.00800           0
      9623 MEMB     72       POPS     C39      CTL2    -0.180000       12.0110           0
      9624 MEMB     72       POPS     H9X      HAL2     0.900000E-01   1.00800           0
      9625 MEMB     72       POPS     H9Y      HAL2     0.900000E-01   1.00800           0
      9626 MEMB     72       POPS     C310     CTL2    -0.180000       12.0110           0
      9627 MEMB     72       POPS     H10X     HAL2     0.900000E-01   1.00800           0
      9628 MEMB     72       POPS     H10Y     HAL2     0.900000E-01   1.00800           0
      9629 MEMB     72       POPS     C311     CTL2    -0.180000       12.0110           0
      9630 MEMB     72       POPS     H11X     HAL2     0.900000E-01   1.00800           0
      9631 MEMB     72       POPS     H11Y     HAL2     0.900000E-01   1.00800           0
      9632 MEMB     72       POPS     C312     CTL2    -0.180000       12.0110           0
      9633 MEMB     72       POPS     H12X     HAL2     0.900000E-01   1.00800           0
      9634 MEMB     72       POPS     H12Y     HAL2     0.900000E-01   1.00800           0
      9635 MEMB     72       POPS     C313     CTL2    -0.180000       12.0110           0
      9636 MEMB     72       POPS     H13X     HAL2     0.900000E-01   1.00800           0
      9637 MEMB     72       POPS     H13Y     HAL2     0.900000E-01   1.00800           0
      9638 MEMB     72       POPS     C314     CTL2    -0.180000       12.0110           0
      9639 MEMB     72       POPS     H14X     HAL2     0.900000E-01   1.00800           0
      9640 MEMB     72       POPS     H14Y     HAL2     0.900000E-01   1.00800           0
      9641 MEMB     72       POPS     C315     CTL2    -0.180000       12.0110           0
      9642 MEMB     72       POPS     H15X     HAL2     0.900000E-01   1.00800           0
      9643 MEMB     72       POPS     H15Y     HAL2     0.900000E-01   1.00800           0
      9644 MEMB     72       POPS     C316     CTL3    -0.270000       12.0110           0
      9645 MEMB     72       POPS     H16X     HAL3     0.900000E-01   1.00800           0
      9646 MEMB     72       POPS     H16Y     HAL3     0.900000E-01   1.00800           0
      9647 MEMB     72       POPS     H16Z     HAL3     0.900000E-01   1.00800           0
      9648 MEMB     73       POPS     N        NH3L    -0.300000       14.0070           0
      9649 MEMB     73       POPS     HN1      HCL      0.330000       1.00800           0
      9650 MEMB     73       POPS     HN2      HCL      0.330000       1.00800           0
      9651 MEMB     73       POPS     HN3      HCL      0.330000       1.00800           0
      9652 MEMB     73       POPS     C12      CTL1     0.210000       12.0110           0
      9653 MEMB     73       POPS     H12A     HBL      0.100000       1.00800           0
      9654 MEMB     73       POPS     C13      CCL      0.340000       12.0110           0
      9655 MEMB     73       POPS     O13A     OCL     -0.670000       15.9994           0
      9656 MEMB     73       POPS     O13B     OCL     -0.670000       15.9994           0
      9657 MEMB     73       POPS     C11      CTL2    -0.800000E-01   12.0110           0
      9658 MEMB     73       POPS     H11A     HAL2     0.900000E-01   1.00800           0
      9659 MEMB     73       POPS     H11B     HAL2     0.900000E-01   1.00800           0
      9660 MEMB     73       POPS     P        PL        1.50000       30.9740           0
      9661 MEMB     73       POPS     O13      O2L     -0.780000       15.9994           0
      9662 MEMB     73       POPS     O14      O2L     -0.780000       15.9994           0
      9663 MEMB     73       POPS     O12      OSLP    -0.570000       15.9994           0
      9664 MEMB     73       POPS     O11      OSLP    -0.570000       15.9994           0
      9665 MEMB     73       POPS     C1       CTL2    -0.800000E-01   12.0110           0
      9666 MEMB     73       POPS     HA       HAL2     0.900000E-01   1.00800           0
      9667 MEMB     73       POPS     HB       HAL2     0.900000E-01   1.00800           0
      9668 MEMB     73       POPS     C2       CTL1     0.170000       12.0110           0
      9669 MEMB     73       POPS     HS       HAL1     0.900000E-01   1.00800           0
      9670 MEMB     73       POPS     O21      OSL     -0.490000       15.9994           0
      9671 MEMB     73       POPS     C21      CL       0.900000       12.0110           0
      9672 MEMB     73       POPS     O22      OBL     -0.630000       15.9994           0
      9673 MEMB     73       POPS     C22      CTL2    -0.220000       12.0110           0
      9674 MEMB     73       POPS     H2R      HAL2     0.900000E-01   1.00800           0
      9675 MEMB     73       POPS     H2S      HAL2     0.900000E-01   1.00800           0
      9676 MEMB     73       POPS     C3       CTL2     0.800000E-01   12.0110           0
      9677 MEMB     73       POPS     HX       HAL2     0.900000E-01   1.00800           0
      9678 MEMB     73       POPS     HY       HAL2     0.900000E-01   1.00800           0
      9679 MEMB     73       POPS     O31      OSL     -0.490000       15.9994           0
      9680 MEMB     73       POPS     C31      CL       0.900000       12.0110           0
      9681 MEMB     73       POPS     O32      OBL     -0.630000       15.9994           0
      9682 MEMB     73       POPS     C32      CTL2    -0.220000       12.0110           0
      9683 MEMB     73       POPS     H2X      HAL2     0.900000E-01   1.00800           0
      9684 MEMB     73       POPS     H2Y      HAL2     0.900000E-01   1.00800           0
      9685 MEMB     73       POPS     C23      CTL2    -0.180000       12.0110           0
      9686 MEMB     73       POPS     H3R      HAL2     0.900000E-01   1.00800           0
      9687 MEMB     73       POPS     H3S      HAL2     0.900000E-01   1.00800           0
      9688 MEMB     73       POPS     C24      CTL2    -0.180000       12.0110           0
      9689 MEMB     73       POPS     H4R      HAL2     0.900000E-01   1.00800           0
      9690 MEMB     73       POPS     H4S      HAL2     0.900000E-01   1.00800           0
      9691 MEMB     73       POPS     C25      CTL2    -0.180000       12.0110           0
      9692 MEMB     73       POPS     H5R      HAL2     0.900000E-01   1.00800           0
      9693 MEMB     73       POPS     H5S      HAL2     0.900000E-01   1.00800           0
      9694 MEMB     73       POPS     C26      CTL2    -0.180000       12.0110           0
      9695 MEMB     73       POPS     H6R      HAL2     0.900000E-01   1.00800           0
      9696 MEMB     73       POPS     H6S      HAL2     0.900000E-01   1.00800           0
      9697 MEMB     73       POPS     C27      CTL2    -0.180000       12.0110           0
      9698 MEMB     73       POPS     H7R      HAL2     0.900000E-01   1.00800           0
      9699 MEMB     73       POPS     H7S      HAL2     0.900000E-01   1.00800           0
      9700 MEMB     73       POPS     C28      CTL2    -0.180000       12.0110           0
      9701 MEMB     73       POPS     H8R      HAL2     0.900000E-01   1.00800           0
      9702 MEMB     73       POPS     H8S      HAL2     0.900000E-01   1.00800           0
      9703 MEMB     73       POPS     C29      CEL1    -0.150000       12.0110           0
      9704 MEMB     73       POPS     H91      HEL1     0.150000       1.00800           0
      9705 MEMB     73       POPS     C210     CEL1    -0.150000       12.0110           0
      9706 MEMB     73       POPS     H101     HEL1     0.150000       1.00800           0
      9707 MEMB     73       POPS     C211     CTL2    -0.180000       12.0110           0
      9708 MEMB     73       POPS     H11R     HAL2     0.900000E-01   1.00800           0
      9709 MEMB     73       POPS     H11S     HAL2     0.900000E-01   1.00800           0
      9710 MEMB     73       POPS     C212     CTL2    -0.180000       12.0110           0
      9711 MEMB     73       POPS     H12R     HAL2     0.900000E-01   1.00800           0
      9712 MEMB     73       POPS     H12S     HAL2     0.900000E-01   1.00800           0
      9713 MEMB     73       POPS     C213     CTL2    -0.180000       12.0110           0
      9714 MEMB     73       POPS     H13R     HAL2     0.900000E-01   1.00800           0
      9715 MEMB     73       POPS     H13S     HAL2     0.900000E-01   1.00800           0
      9716 MEMB     73       POPS     C214     CTL2    -0.180000       12.0110           0
      9717 MEMB     73       POPS     H14R     HAL2     0.900000E-01   1.00800           0
      9718 MEMB     73       POPS     H14S     HAL2     0.900000E-01   1.00800           0
      9719 MEMB     73       POPS     C215     CTL2    -0.180000       12.0110           0
      9720 MEMB     73       POPS     H15R     HAL2     0.900000E-01   1.00800           0
      9721 MEMB     73       POPS     H15S     HAL2     0.900000E-01   1.00800           0
      9722 MEMB     73       POPS     C216     CTL2    -0.180000       12.0110           0
      9723 MEMB     73       POPS     H16R     HAL2     0.900000E-01   1.00800           0
      9724 MEMB     73       POPS     H16S     HAL2     0.900000E-01   1.00800           0
      9725 MEMB     73       POPS     C217     CTL2    -0.180000       12.0110           0
      9726 MEMB     73       POPS     H17R     HAL2     0.900000E-01   1.00800           0
      9727 MEMB     73       POPS     H17S     HAL2     0.900000E-01   1.00800           0
      9728 MEMB     73       POPS     C218     CTL3    -0.270000       12.0110           0
      9729 MEMB     73       POPS     H18R     HAL3     0.900000E-01   1.00800           0
      9730 MEMB     73       POPS     H18S     HAL3     0.900000E-01   1.00800           0
      9731 MEMB     73       POPS     H18T     HAL3     0.900000E-01   1.00800           0
      9732 MEMB     73       POPS     C33      CTL2    -0.180000       12.0110           0
      9733 MEMB     73       POPS     H3X      HAL2     0.900000E-01   1.00800           0
      9734 MEMB     73       POPS     H3Y      HAL2     0.900000E-01   1.00800           0
      9735 MEMB     73       POPS     C34      CTL2    -0.180000       12.0110           0
      9736 MEMB     73       POPS     H4X      HAL2     0.900000E-01   1.00800           0
      9737 MEMB     73       POPS     H4Y      HAL2     0.900000E-01   1.00800           0
      9738 MEMB     73       POPS     C35      CTL2    -0.180000       12.0110           0
      9739 MEMB     73       POPS     H5X      HAL2     0.900000E-01   1.00800           0
      9740 MEMB     73       POPS     H5Y      HAL2     0.900000E-01   1.00800           0
      9741 MEMB     73       POPS     C36      CTL2    -0.180000       12.0110           0
      9742 MEMB     73       POPS     H6X      HAL2     0.900000E-01   1.00800           0
      9743 MEMB     73       POPS     H6Y      HAL2     0.900000E-01   1.00800           0
      9744 MEMB     73       POPS     C37      CTL2    -0.180000       12.0110           0
      9745 MEMB     73       POPS     H7X      HAL2     0.900000E-01   1.00800           0
      9746 MEMB     73       POPS     H7Y      HAL2     0.900000E-01   1.00800           0
      9747 MEMB     73       POPS     C38      CTL2    -0.180000       12.0110           0
      9748 MEMB     73       POPS     H8X      HAL2     0.900000E-01   1.00800           0
      9749 MEMB     73       POPS     H8Y      HAL2     0.900000E-01   1.00800           0
      9750 MEMB     73       POPS     C39      CTL2    -0.180000       12.0110           0
      9751 MEMB     73       POPS     H9X      HAL2     0.900000E-01   1.00800           0
      9752 MEMB     73       POPS     H9Y      HAL2     0.900000E-01   1.00800           0
      9753 MEMB     73       POPS     C310     CTL2    -0.180000       12.0110           0
      9754 MEMB     73       POPS     H10X     HAL2     0.900000E-01   1.00800           0
      9755 MEMB     73       POPS     H10Y     HAL2     0.900000E-01   1.00800           0
      9756 MEMB     73       POPS     C311     CTL2    -0.180000       12.0110           0
      9757 MEMB     73       POPS     H11X     HAL2     0.900000E-01   1.00800           0
      9758 MEMB     73       POPS     H11Y     HAL2     0.900000E-01   1.00800           0
      9759 MEMB     73       POPS     C312     CTL2    -0.180000       12.0110           0
      9760 MEMB     73       POPS     H12X     HAL2     0.900000E-01   1.00800           0
      9761 MEMB     73       POPS     H12Y     HAL2     0.900000E-01   1.00800           0
      9762 MEMB     73       POPS     C313     CTL2    -0.180000       12.0110           0
      9763 MEMB     73       POPS     H13X     HAL2     0.900000E-01   1.00800           0
      9764 MEMB     73       POPS     H13Y     HAL2     0.900000E-01   1.00800           0
      9765 MEMB     73       POPS     C314     CTL2    -0.180000       12.0110           0
      9766 MEMB     73       POPS     H14X     HAL2     0.900000E-01   1.00800           0
      9767 MEMB     73       POPS     H14Y     HAL2     0.900000E-01   1.00800           0
      9768 MEMB     73       POPS     C315     CTL2    -0.180000       12.0110           0
      9769 MEMB     73       POPS     H15X     HAL2     0.900000E-01   1.00800           0
      9770 MEMB     73       POPS     H15Y     HAL2     0.900000E-01   1.00800           0
      9771 MEMB     73       POPS     C316     CTL3    -0.270000       12.0110           0
      9772 MEMB     73       POPS     H16X     HAL3     0.900000E-01   1.00800           0
      9773 MEMB     73       POPS     H16Y     HAL3     0.900000E-01   1.00800           0
      9774 MEMB     73       POPS     H16Z     HAL3     0.900000E-01   1.00800           0
      9775 MEMB     74       POPC     N        NTL     -0.600000       14.0070           0
      9776 MEMB     74       POPC     C12      CTL2    -0.100000       12.0110           0
      9777 MEMB     74       POPC     H12A     HL       0.250000       1.00800           0
      9778 MEMB     74       POPC     H12B     HL       0.250000       1.00800           0
      9779 MEMB     74       POPC     C13      CTL5    -0.350000       12.0110           0
      9780 MEMB     74       POPC     H13A     HL       0.250000       1.00800           0
      9781 MEMB     74       POPC     H13B     HL       0.250000       1.00800           0
      9782 MEMB     74       POPC     H13C     HL       0.250000       1.00800           0
      9783 MEMB     74       POPC     C14      CTL5    -0.350000       12.0110           0
      9784 MEMB     74       POPC     H14A     HL       0.250000       1.00800           0
      9785 MEMB     74       POPC     H14B     HL       0.250000       1.00800           0
      9786 MEMB     74       POPC     H14C     HL       0.250000       1.00800           0
      9787 MEMB     74       POPC     C15      CTL5    -0.350000       12.0110           0
      9788 MEMB     74       POPC     H15A     HL       0.250000       1.00800           0
      9789 MEMB     74       POPC     H15B     HL       0.250000       1.00800           0
      9790 MEMB     74       POPC     H15C     HL       0.250000       1.00800           0
      9791 MEMB     74       POPC     C11      CTL2    -0.800000E-01   12.0110           0
      9792 MEMB     74       POPC     H11A     HAL2     0.900000E-01   1.00800           0
      9793 MEMB     74       POPC     H11B     HAL2     0.900000E-01   1.00800           0
      9794 MEMB     74       POPC     P        PL        1.50000       30.9740           0
      9795 MEMB     74       POPC     O13      O2L     -0.780000       15.9994           0
      9796 MEMB     74       POPC     O14      O2L     -0.780000       15.9994           0
      9797 MEMB     74       POPC     O12      OSLP    -0.570000       15.9994           0
      9798 MEMB     74       POPC     O11      OSLP    -0.570000       15.9994           0
      9799 MEMB     74       POPC     C1       CTL2    -0.800000E-01   12.0110           0
      9800 MEMB     74       POPC     HA       HAL2     0.900000E-01   1.00800           0
      9801 MEMB     74       POPC     HB       HAL2     0.900000E-01   1.00800           0
      9802 MEMB     74       POPC     C2       CTL1     0.170000       12.0110           0
      9803 MEMB     74       POPC     HS       HAL1     0.900000E-01   1.00800           0
      9804 MEMB     74       POPC     O21      OSL     -0.490000       15.9994           0
      9805 MEMB     74       POPC     C21      CL       0.900000       12.0110           0
      9806 MEMB     74       POPC     O22      OBL     -0.630000       15.9994           0
      9807 MEMB     74       POPC     C22      CTL2    -0.220000       12.0110           0
      9808 MEMB     74       POPC     H2R      HAL2     0.900000E-01   1.00800           0
      9809 MEMB     74       POPC     H2S      HAL2     0.900000E-01   1.00800           0
      9810 MEMB     74       POPC     C3       CTL2     0.800000E-01   12.0110           0
      9811 MEMB     74       POPC     HX       HAL2     0.900000E-01   1.00800           0
      9812 MEMB     74       POPC     HY       HAL2     0.900000E-01   1.00800           0
      9813 MEMB     74       POPC     O31      OSL     -0.490000       15.9994           0
      9814 MEMB     74       POPC     C31      CL       0.900000       12.0110           0
      9815 MEMB     74       POPC     O32      OBL     -0.630000       15.9994           0
      9816 MEMB     74       POPC     C32      CTL2    -0.220000       12.0110           0
      9817 MEMB     74       POPC     H2X      HAL2     0.900000E-01   1.00800           0
      9818 MEMB     74       POPC     H2Y      HAL2     0.900000E-01   1.00800           0
      9819 MEMB     74       POPC     C23      CTL2    -0.180000       12.0110           0
      9820 MEMB     74       POPC     H3R      HAL2     0.900000E-01   1.00800           0
      9821 MEMB     74       POPC     H3S      HAL2     0.900000E-01   1.00800           0
      9822 MEMB     74       POPC     C24      CTL2    -0.180000       12.0110           0
      9823 MEMB     74       POPC     H4R      HAL2     0.900000E-01   1.00800           0
      9824 MEMB     74       POPC     H4S      HAL2     0.900000E-01   1.00800           0
      9825 MEMB     74       POPC     C25      CTL2    -0.180000       12.0110           0
      9826 MEMB     74       POPC     H5R      HAL2     0.900000E-01   1.00800           0
      9827 MEMB     74       POPC     H5S      HAL2     0.900000E-01   1.00800           0
      9828 MEMB     74       POPC     C26      CTL2    -0.180000       12.0110           0
      9829 MEMB     74       POPC     H6R      HAL2     0.900000E-01   1.00800           0
      9830 MEMB     74       POPC     H6S      HAL2     0.900000E-01   1.00800           0
      9831 MEMB     74       POPC     C27      CTL2    -0.180000       12.0110           0
      9832 MEMB     74       POPC     H7R      HAL2     0.900000E-01   1.00800           0
      9833 MEMB     74       POPC     H7S      HAL2     0.900000E-01   1.00800           0
      9834 MEMB     74       POPC     C28      CTL2    -0.180000       12.0110           0
      9835 MEMB     74       POPC     H8R      HAL2     0.900000E-01   1.00800           0
      9836 MEMB     74       POPC     H8S      HAL2     0.900000E-01   1.00800           0
      9837 MEMB     74       POPC     C29      CEL1    -0.150000       12.0110           0
      9838 MEMB     74       POPC     H91      HEL1     0.150000       1.00800           0
      9839 MEMB     74       POPC     C210     CEL1    -0.150000       12.0110           0
      9840 MEMB     74       POPC     H101     HEL1     0.150000       1.00800           0
      9841 MEMB     74       POPC     C211     CTL2    -0.180000       12.0110           0
      9842 MEMB     74       POPC     H11R     HAL2     0.900000E-01   1.00800           0
      9843 MEMB     74       POPC     H11S     HAL2     0.900000E-01   1.00800           0
      9844 MEMB     74       POPC     C212     CTL2    -0.180000       12.0110           0
      9845 MEMB     74       POPC     H12R     HAL2     0.900000E-01   1.00800           0
      9846 MEMB     74       POPC     H12S     HAL2     0.900000E-01   1.00800           0
      9847 MEMB     74       POPC     C213     CTL2    -0.180000       12.0110           0
      9848 MEMB     74       POPC     H13R     HAL2     0.900000E-01   1.00800           0
      9849 MEMB     74       POPC     H13S     HAL2     0.900000E-01   1.00800           0
      9850 MEMB     74       POPC     C214     CTL2    -0.180000       12.0110           0
      9851 MEMB     74       POPC     H14R     HAL2     0.900000E-01   1.00800           0
      9852 MEMB     74       POPC     H14S     HAL2     0.900000E-01   1.00800           0
      9853 MEMB     74       POPC     C215     CTL2    -0.180000       12.0110           0
      9854 MEMB     74       POPC     H15R     HAL2     0.900000E-01   1.00800           0
      9855 MEMB     74       POPC     H15S     HAL2     0.900000E-01   1.00800           0
      9856 MEMB     74       POPC     C216     CTL2    -0.180000       12.0110           0
      9857 MEMB     74       POPC     H16R     HAL2     0.900000E-01   1.00800           0
      9858 MEMB     74       POPC     H16S     HAL2     0.900000E-01   1.00800           0
      9859 MEMB     74       POPC     C217     CTL2    -0.180000       12.0110           0
      9860 MEMB     74       POPC     H17R     HAL2     0.900000E-01   1.00800           0
      9861 MEMB     74       POPC     H17S     HAL2     0.900000E-01   1.00800           0
      9862 MEMB     74       POPC     C218     CTL3    -0.270000       12.0110           0
      9863 MEMB     74       POPC     H18R     HAL3     0.900000E-01   1.00800           0
      9864 MEMB     74       POPC     H18S     HAL3     0.900000E-01   1.00800           0
      9865 MEMB     74       POPC     H18T     HAL3     0.900000E-01   1.00800           0
      9866 MEMB     74       POPC     C33      CTL2    -0.180000       12.0110           0
      9867 MEMB     74       POPC     H3X      HAL2     0.900000E-01   1.00800           0
      9868 MEMB     74       POPC     H3Y      HAL2     0.900000E-01   1.00800           0
      9869 MEMB     74       POPC     C34      CTL2    -0.180000       12.0110           0
      9870 MEMB     74       POPC     H4X      HAL2     0.900000E-01   1.00800           0
      9871 MEMB     74       POPC     H4Y      HAL2     0.900000E-01   1.00800           0
      9872 MEMB     74       POPC     C35      CTL2    -0.180000       12.0110           0
      9873 MEMB     74       POPC     H5X      HAL2     0.900000E-01   1.00800           0
      9874 MEMB     74       POPC     H5Y      HAL2     0.900000E-01   1.00800           0
      9875 MEMB     74       POPC     C36      CTL2    -0.180000       12.0110           0
      9876 MEMB     74       POPC     H6X      HAL2     0.900000E-01   1.00800           0
      9877 MEMB     74       POPC     H6Y      HAL2     0.900000E-01   1.00800           0
      9878 MEMB     74       POPC     C37      CTL2    -0.180000       12.0110           0
      9879 MEMB     74       POPC     H7X      HAL2     0.900000E-01   1.00800           0
      9880 MEMB     74       POPC     H7Y      HAL2     0.900000E-01   1.00800           0
      9881 MEMB     74       POPC     C38      CTL2    -0.180000       12.0110           0
      9882 MEMB     74       POPC     H8X      HAL2     0.900000E-01   1.00800           0
      9883 MEMB     74       POPC     H8Y      HAL2     0.900000E-01   1.00800           0
      9884 MEMB     74       POPC     C39      CTL2    -0.180000       12.0110           0
      9885 MEMB     74       POPC     H9X      HAL2     0.900000E-01   1.00800           0
      9886 MEMB     74       POPC     H9Y      HAL2     0.900000E-01   1.00800           0
      9887 MEMB     74       POPC     C310     CTL2    -0.180000       12.0110           0
      9888 MEMB     74       POPC     H10X     HAL2     0.900000E-01   1.00800           0
      9889 MEMB     74       POPC     H10Y     HAL2     0.900000E-01   1.00800           0
      9890 MEMB     74       POPC     C311     CTL2    -0.180000       12.0110           0
      9891 MEMB     74       POPC     H11X     HAL2     0.900000E-01   1.00800           0
      9892 MEMB     74       POPC     H11Y     HAL2     0.900000E-01   1.00800           0
      9893 MEMB     74       POPC     C312     CTL2    -0.180000       12.0110           0
      9894 MEMB     74       POPC     H12X     HAL2     0.900000E-01   1.00800           0
      9895 MEMB     74       POPC     H12Y     HAL2     0.900000E-01   1.00800           0
      9896 MEMB     74       POPC     C313     CTL2    -0.180000       12.0110           0
      9897 MEMB     74       POPC     H13X     HAL2     0.900000E-01   1.00800           0
      9898 MEMB     74       POPC     H13Y     HAL2     0.900000E-01   1.00800           0
      9899 MEMB     74       POPC     C314     CTL2    -0.180000       12.0110           0
      9900 MEMB     74       POPC     H14X     HAL2     0.900000E-01   1.00800           0
      9901 MEMB     74       POPC     H14Y     HAL2     0.900000E-01   1.00800           0
      9902 MEMB     74       POPC     C315     CTL2    -0.180000       12.0110           0
      9903 MEMB     74       POPC     H15X     HAL2     0.900000E-01   1.00800           0
      9904 MEMB     74       POPC     H15Y     HAL2     0.900000E-01   1.00800           0
      9905 MEMB     74       POPC     C316     CTL3    -0.270000       12.0110           0
      9906 MEMB     74       POPC     H16X     HAL3     0.900000E-01   1.00800           0
      9907 MEMB     74       POPC     H16Y     HAL3     0.900000E-01   1.00800           0
      9908 MEMB     74       POPC     H16Z     HAL3     0.900000E-01   1.00800           0
      9909 MEMB     75       POPC     N        NTL     -0.600000       14.0070           0
      9910 MEMB     75       POPC     C12      CTL2    -0.100000       12.0110           0
      9911 MEMB     75       POPC     H12A     HL       0.250000       1.00800           0
      9912 MEMB     75       POPC     H12B     HL       0.250000       1.00800           0
      9913 MEMB     75       POPC     C13      CTL5    -0.350000       12.0110           0
      9914 MEMB     75       POPC     H13A     HL       0.250000       1.00800           0
      9915 MEMB     75       POPC     H13B     HL       0.250000       1.00800           0
      9916 MEMB     75       POPC     H13C     HL       0.250000       1.00800           0
      9917 MEMB     75       POPC     C14      CTL5    -0.350000       12.0110           0
      9918 MEMB     75       POPC     H14A     HL       0.250000       1.00800           0
      9919 MEMB     75       POPC     H14B     HL       0.250000       1.00800           0
      9920 MEMB     75       POPC     H14C     HL       0.250000       1.00800           0
      9921 MEMB     75       POPC     C15      CTL5    -0.350000       12.0110           0
      9922 MEMB     75       POPC     H15A     HL       0.250000       1.00800           0
      9923 MEMB     75       POPC     H15B     HL       0.250000       1.00800           0
      9924 MEMB     75       POPC     H15C     HL       0.250000       1.00800           0
      9925 MEMB     75       POPC     C11      CTL2    -0.800000E-01   12.0110           0
      9926 MEMB     75       POPC     H11A     HAL2     0.900000E-01   1.00800           0
      9927 MEMB     75       POPC     H11B     HAL2     0.900000E-01   1.00800           0
      9928 MEMB     75       POPC     P        PL        1.50000       30.9740           0
      9929 MEMB     75       POPC     O13      O2L     -0.780000       15.9994           0
      9930 MEMB     75       POPC     O14      O2L     -0.780000       15.9994           0
      9931 MEMB     75       POPC     O12      OSLP    -0.570000       15.9994           0
      9932 MEMB     75       POPC     O11      OSLP    -0.570000       15.9994           0
      9933 MEMB     75       POPC     C1       CTL2    -0.800000E-01   12.0110           0
      9934 MEMB     75       POPC     HA       HAL2     0.900000E-01   1.00800           0
      9935 MEMB     75       POPC     HB       HAL2     0.900000E-01   1.00800           0
      9936 MEMB     75       POPC     C2       CTL1     0.170000       12.0110           0
      9937 MEMB     75       POPC     HS       HAL1     0.900000E-01   1.00800           0
      9938 MEMB     75       POPC     O21      OSL     -0.490000       15.9994           0
      9939 MEMB     75       POPC     C21      CL       0.900000       12.0110           0
      9940 MEMB     75       POPC     O22      OBL     -0.630000       15.9994           0
      9941 MEMB     75       POPC     C22      CTL2    -0.220000       12.0110           0
      9942 MEMB     75       POPC     H2R      HAL2     0.900000E-01   1.00800           0
      9943 MEMB     75       POPC     H2S      HAL2     0.900000E-01   1.00800           0
      9944 MEMB     75       POPC     C3       CTL2     0.800000E-01   12.0110           0
      9945 MEMB     75       POPC     HX       HAL2     0.900000E-01   1.00800           0
      9946 MEMB     75       POPC     HY       HAL2     0.900000E-01   1.00800           0
      9947 MEMB     75       POPC     O31      OSL     -0.490000       15.9994           0
      9948 MEMB     75       POPC     C31      CL       0.900000       12.0110           0
      9949 MEMB     75       POPC     O32      OBL     -0.630000       15.9994           0
      9950 MEMB     75       POPC     C32      CTL2    -0.220000       12.0110           0
      9951 MEMB     75       POPC     H2X      HAL2     0.900000E-01   1.00800           0
      9952 MEMB     75       POPC     H2Y      HAL2     0.900000E-01   1.00800           0
      9953 MEMB     75       POPC     C23      CTL2    -0.180000       12.0110           0
      9954 MEMB     75       POPC     H3R      HAL2     0.900000E-01   1.00800           0
      9955 MEMB     75       POPC     H3S      HAL2     0.900000E-01   1.00800           0
      9956 MEMB     75       POPC     C24      CTL2    -0.180000       12.0110           0
      9957 MEMB     75       POPC     H4R      HAL2     0.900000E-01   1.00800           0
      9958 MEMB     75       POPC     H4S      HAL2     0.900000E-01   1.00800           0
      9959 MEMB     75       POPC     C25      CTL2    -0.180000       12.0110           0
      9960 MEMB     75       POPC     H5R      HAL2     0.900000E-01   1.00800           0
      9961 MEMB     75       POPC     H5S      HAL2     0.900000E-01   1.00800           0
      9962 MEMB     75       POPC     C26      CTL2    -0.180000       12.0110           0
      9963 MEMB     75       POPC     H6R      HAL2     0.900000E-01   1.00800           0
      9964 MEMB     75       POPC     H6S      HAL2     0.900000E-01   1.00800           0
      9965 MEMB     75       POPC     C27      CTL2    -0.180000       12.0110           0
      9966 MEMB     75       POPC     H7R      HAL2     0.900000E-01   1.00800           0
      9967 MEMB     75       POPC     H7S      HAL2     0.900000E-01   1.00800           0
      9968 MEMB     75       POPC     C28      CTL2    -0.180000       12.0110           0
      9969 MEMB     75       POPC     H8R      HAL2     0.900000E-01   1.00800           0
      9970 MEMB     75       POPC     H8S      HAL2     0.900000E-01   1.00800           0
      9971 MEMB     75       POPC     C29      CEL1    -0.150000       12.0110           0
      9972 MEMB     75       POPC     H91      HEL1     0.150000       1.00800           0
      9973 MEMB     75       POPC     C210     CEL1    -0.150000       12.0110           0
      9974 MEMB     75       POPC     H101     HEL1     0.150000       1.00800           0
      9975 MEMB     75       POPC     C211     CTL2    -0.180000       12.0110           0
      9976 MEMB     75       POPC     H11R     HAL2     0.900000E-01   1.00800           0
      9977 MEMB     75       POPC     H11S     HAL2     0.900000E-01   1.00800           0
      9978 MEMB     75       POPC     C212     CTL2    -0.180000       12.0110           0
      9979 MEMB     75       POPC     H12R     HAL2     0.900000E-01   1.00800           0
      9980 MEMB     75       POPC     H12S     HAL2     0.900000E-01   1.00800           0
      9981 MEMB     75       POPC     C213     CTL2    -0.180000       12.0110           0
      9982 MEMB     75       POPC     H13R     HAL2     0.900000E-01   1.00800           0
      9983 MEMB     75       POPC     H13S     HAL2     0.900000E-01   1.00800           0
      9984 MEMB     75       POPC     C214     CTL2    -0.180000       12.0110           0
      9985 MEMB     75       POPC     H14R     HAL2     0.900000E-01   1.00800           0
      9986 MEMB     75       POPC     H14S     HAL2     0.900000E-01   1.00800           0
      9987 MEMB     75       POPC     C215     CTL2    -0.180000       12.0110           0
      9988 MEMB     75       POPC     H15R     HAL2     0.900000E-01   1.00800           0
      9989 MEMB     75       POPC     H15S     HAL2     0.900000E-01   1.00800           0
      9990 MEMB     75       POPC     C216     CTL2    -0.180000       12.0110           0
      9991 MEMB     75       POPC     H16R     HAL2     0.900000E-01   1.00800           0
      9992 MEMB     75       POPC     H16S     HAL2     0.900000E-01   1.00800           0
      9993 MEMB     75       POPC     C217     CTL2    -0.180000       12.0110           0
      9994 MEMB     75       POPC     H17R     HAL2     0.900000E-01   1.00800           0
      9995 MEMB     75       POPC     H17S     HAL2     0.900000E-01   1.00800           0
      9996 MEMB     75       POPC     C218     CTL3    -0.270000       12.0110           0
      9997 MEMB     75       POPC     H18R     HAL3     0.900000E-01   1.00800           0
      9998 MEMB     75       POPC     H18S     HAL3     0.900000E-01   1.00800           0
      9999 MEMB     75       POPC     H18T     HAL3     0.900000E-01   1.00800           0
     10000 MEMB     75       POPC     C33      CTL2    -0.180000       12.0110           0
     10001 MEMB     75       POPC     H3X      HAL2     0.900000E-01   1.00800           0
     10002 MEMB     75       POPC     H3Y      HAL2     0.900000E-01   1.00800           0
     10003 MEMB     75       POPC     C34      CTL2    -0.180000       12.0110           0
     10004 MEMB     75       POPC     H4X      HAL2     0.900000E-01   1.00800           0
     10005 MEMB     75       POPC     H4Y      HAL2     0.900000E-01   1.00800           0
     10006 MEMB     75       POPC     C35      CTL2    -0.180000       12.0110           0
     10007 MEMB     75       POPC     H5X      HAL2     0.900000E-01   1.00800           0
     10008 MEMB     75       POPC     H5Y      HAL2     0.900000E-01   1.00800           0
     10009 MEMB     75       POPC     C36      CTL2    -0.180000       12.0110           0
     10010 MEMB     75       POPC     H6X      HAL2     0.900000E-01   1.00800           0
     10011 MEMB     75       POPC     H6Y      HAL2     0.900000E-01   1.00800           0
     10012 MEMB     75       POPC     C37      CTL2    -0.180000       12.0110           0
     10013 MEMB     75       POPC     H7X      HAL2     0.900000E-01   1.00800           0
     10014 MEMB     75       POPC     H7Y      HAL2     0.900000E-01   1.00800           0
     10015 MEMB     75       POPC     C38      CTL2    -0.180000       12.0110           0
     10016 MEMB     75       POPC     H8X      HAL2     0.900000E-01   1.00800           0
     10017 MEMB     75       POPC     H8Y      HAL2     0.900000E-01   1.00800           0
     10018 MEMB     75       POPC     C39      CTL2    -0.180000       12.0110           0
     10019 MEMB     75       POPC     H9X      HAL2     0.900000E-01   1.00800           0
     10020 MEMB     75       POPC     H9Y      HAL2     0.900000E-01   1.00800           0
     10021 MEMB     75       POPC     C310     CTL2    -0.180000       12.0110           0
     10022 MEMB     75       POPC     H10X     HAL2     0.900000E-01   1.00800           0
     10023 MEMB     75       POPC     H10Y     HAL2     0.900000E-01   1.00800           0
     10024 MEMB     75       POPC     C311     CTL2    -0.180000       12.0110           0
     10025 MEMB     75       POPC     H11X     HAL2     0.900000E-01   1.00800           0
     10026 MEMB     75       POPC     H11Y     HAL2     0.900000E-01   1.00800           0
     10027 MEMB     75       POPC     C312     CTL2    -0.180000       12.0110           0
     10028 MEMB     75       POPC     H12X     HAL2     0.900000E-01   1.00800           0
     10029 MEMB     75       POPC     H12Y     HAL2     0.900000E-01   1.00800           0
     10030 MEMB     75       POPC     C313     CTL2    -0.180000       12.0110           0
     10031 MEMB     75       POPC     H13X     HAL2     0.900000E-01   1.00800           0
     10032 MEMB     75       POPC     H13Y     HAL2     0.900000E-01   1.00800           0
     10033 MEMB     75       POPC     C314     CTL2    -0.180000       12.0110           0
     10034 MEMB     75       POPC     H14X     HAL2     0.900000E-01   1.00800           0
     10035 MEMB     75       POPC     H14Y     HAL2     0.900000E-01   1.00800           0
     10036 MEMB     75       POPC     C315     CTL2    -0.180000       12.0110           0
     10037 MEMB     75       POPC     H15X     HAL2     0.900000E-01   1.00800           0
     10038 MEMB     75       POPC     H15Y     HAL2     0.900000E-01   1.00800           0
     10039 MEMB     75       POPC     C316     CTL3    -0.270000       12.0110           0
     10040 MEMB     75       POPC     H16X     HAL3     0.900000E-01   1.00800           0
     10041 MEMB     75       POPC     H16Y     HAL3     0.900000E-01   1.00800           0
     10042 MEMB     75       POPC     H16Z     HAL3     0.900000E-01   1.00800           0
     10043 MEMB     76       POPC     N        NTL     -0.600000       14.0070           0
     10044 MEMB     76       POPC     C12      CTL2    -0.100000       12.0110           0
     10045 MEMB     76       POPC     H12A     HL       0.250000       1.00800           0
     10046 MEMB     76       POPC     H12B     HL       0.250000       1.00800           0
     10047 MEMB     76       POPC     C13      CTL5    -0.350000       12.0110           0
     10048 MEMB     76       POPC     H13A     HL       0.250000       1.00800           0
     10049 MEMB     76       POPC     H13B     HL       0.250000       1.00800           0
     10050 MEMB     76       POPC     H13C     HL       0.250000       1.00800           0
     10051 MEMB     76       POPC     C14      CTL5    -0.350000       12.0110           0
     10052 MEMB     76       POPC     H14A     HL       0.250000       1.00800           0
     10053 MEMB     76       POPC     H14B     HL       0.250000       1.00800           0
     10054 MEMB     76       POPC     H14C     HL       0.250000       1.00800           0
     10055 MEMB     76       POPC     C15      CTL5    -0.350000       12.0110           0
     10056 MEMB     76       POPC     H15A     HL       0.250000       1.00800           0
     10057 MEMB     76       POPC     H15B     HL       0.250000       1.00800           0
     10058 MEMB     76       POPC     H15C     HL       0.250000       1.00800           0
     10059 MEMB     76       POPC     C11      CTL2    -0.800000E-01   12.0110           0
     10060 MEMB     76       POPC     H11A     HAL2     0.900000E-01   1.00800           0
     10061 MEMB     76       POPC     H11B     HAL2     0.900000E-01   1.00800           0
     10062 MEMB     76       POPC     P        PL        1.50000       30.9740           0
     10063 MEMB     76       POPC     O13      O2L     -0.780000       15.9994           0
     10064 MEMB     76       POPC     O14      O2L     -0.780000       15.9994           0
     10065 MEMB     76       POPC     O12      OSLP    -0.570000       15.9994           0
     10066 MEMB     76       POPC     O11      OSLP    -0.570000       15.9994           0
     10067 MEMB     76       POPC     C1       CTL2    -0.800000E-01   12.0110           0
     10068 MEMB     76       POPC     HA       HAL2     0.900000E-01   1.00800           0
     10069 MEMB     76       POPC     HB       HAL2     0.900000E-01   1.00800           0
     10070 MEMB     76       POPC     C2       CTL1     0.170000       12.0110           0
     10071 MEMB     76       POPC     HS       HAL1     0.900000E-01   1.00800           0
     10072 MEMB     76       POPC     O21      OSL     -0.490000       15.9994           0
     10073 MEMB     76       POPC     C21      CL       0.900000       12.0110           0
     10074 MEMB     76       POPC     O22      OBL     -0.630000       15.9994           0
     10075 MEMB     76       POPC     C22      CTL2    -0.220000       12.0110           0
     10076 MEMB     76       POPC     H2R      HAL2     0.900000E-01   1.00800           0
     10077 MEMB     76       POPC     H2S      HAL2     0.900000E-01   1.00800           0
     10078 MEMB     76       POPC     C3       CTL2     0.800000E-01   12.0110           0
     10079 MEMB     76       POPC     HX       HAL2     0.900000E-01   1.00800           0
     10080 MEMB     76       POPC     HY       HAL2     0.900000E-01   1.00800           0
     10081 MEMB     76       POPC     O31      OSL     -0.490000       15.9994           0
     10082 MEMB     76       POPC     C31      CL       0.900000       12.0110           0
     10083 MEMB     76       POPC     O32      OBL     -0.630000       15.9994           0
     10084 MEMB     76       POPC     C32      CTL2    -0.220000       12.0110           0
     10085 MEMB     76       POPC     H2X      HAL2     0.900000E-01   1.00800           0
     10086 MEMB     76       POPC     H2Y      HAL2     0.900000E-01   1.00800           0
     10087 MEMB     76       POPC     C23      CTL2    -0.180000       12.0110           0
     10088 MEMB     76       POPC     H3R      HAL2     0.900000E-01   1.00800           0
     10089 MEMB     76       POPC     H3S      HAL2     0.900000E-01   1.00800           0
     10090 MEMB     76       POPC     C24      CTL2    -0.180000       12.0110           0
     10091 MEMB     76       POPC     H4R      HAL2     0.900000E-01   1.00800           0
     10092 MEMB     76       POPC     H4S      HAL2     0.900000E-01   1.00800           0
     10093 MEMB     76       POPC     C25      CTL2    -0.180000       12.0110           0
     10094 MEMB     76       POPC     H5R      HAL2     0.900000E-01   1.00800           0
     10095 MEMB     76       POPC     H5S      HAL2     0.900000E-01   1.00800           0
     10096 MEMB     76       POPC     C26      CTL2    -0.180000       12.0110           0
     10097 MEMB     76       POPC     H6R      HAL2     0.900000E-01   1.00800           0
     10098 MEMB     76       POPC     H6S      HAL2     0.900000E-01   1.00800           0
     10099 MEMB     76       POPC     C27      CTL2    -0.180000       12.0110           0
     10100 MEMB     76       POPC     H7R      HAL2     0.900000E-01   1.00800           0
     10101 MEMB     76       POPC     H7S      HAL2     0.900000E-01   1.00800           0
     10102 MEMB     76       POPC     C28      CTL2    -0.180000       12.0110           0
     10103 MEMB     76       POPC     H8R      HAL2     0.900000E-01   1.00800           0
     10104 MEMB     76       POPC     H8S      HAL2     0.900000E-01   1.00800           0
     10105 MEMB     76       POPC     C29      CEL1    -0.150000       12.0110           0
     10106 MEMB     76       POPC     H91      HEL1     0.150000       1.00800           0
     10107 MEMB     76       POPC     C210     CEL1    -0.150000       12.0110           0
     10108 MEMB     76       POPC     H101     HEL1     0.150000       1.00800           0
     10109 MEMB     76       POPC     C211     CTL2    -0.180000       12.0110           0
     10110 MEMB     76       POPC     H11R     HAL2     0.900000E-01   1.00800           0
     10111 MEMB     76       POPC     H11S     HAL2     0.900000E-01   1.00800           0
     10112 MEMB     76       POPC     C212     CTL2    -0.180000       12.0110           0
     10113 MEMB     76       POPC     H12R     HAL2     0.900000E-01   1.00800           0
     10114 MEMB     76       POPC     H12S     HAL2     0.900000E-01   1.00800           0
     10115 MEMB     76       POPC     C213     CTL2    -0.180000       12.0110           0
     10116 MEMB     76       POPC     H13R     HAL2     0.900000E-01   1.00800           0
     10117 MEMB     76       POPC     H13S     HAL2     0.900000E-01   1.00800           0
     10118 MEMB     76       POPC     C214     CTL2    -0.180000       12.0110           0
     10119 MEMB     76       POPC     H14R     HAL2     0.900000E-01   1.00800           0
     10120 MEMB     76       POPC     H14S     HAL2     0.900000E-01   1.00800           0
     10121 MEMB     76       POPC     C215     CTL2    -0.180000       12.0110           0
     10122 MEMB     76       POPC     H15R     HAL2     0.900000E-01   1.00800           0
     10123 MEMB     76       POPC     H15S     HAL2     0.900000E-01   1.00800           0
     10124 MEMB     76       POPC     C216     CTL2    -0.180000       12.0110           0
     10125 MEMB     76       POPC     H16R     HAL2     0.900000E-01   1.00800           0
     10126 MEMB     76       POPC     H16S     HAL2     0.900000E-01   1.00800           0
     10127 MEMB     76       POPC     C217     CTL2    -0.180000       12.0110           0
     10128 MEMB     76       POPC     H17R     HAL2     0.900000E-01   1.00800           0
     10129 MEMB     76       POPC     H17S     HAL2     0.900000E-01   1.00800           0
     10130 MEMB     76       POPC     C218     CTL3    -0.270000       12.0110           0
     10131 MEMB     76       POPC     H18R     HAL3     0.900000E-01   1.00800           0
     10132 MEMB     76       POPC     H18S     HAL3     0.900000E-01   1.00800           0
     10133 MEMB     76       POPC     H18T     HAL3     0.900000E-01   1.00800           0
     10134 MEMB     76       POPC     C33      CTL2    -0.180000       12.0110           0
     10135 MEMB     76       POPC     H3X      HAL2     0.900000E-01   1.00800           0
     10136 MEMB     76       POPC     H3Y      HAL2     0.900000E-01   1.00800           0
     10137 MEMB     76       POPC     C34      CTL2    -0.180000       12.0110           0
     10138 MEMB     76       POPC     H4X      HAL2     0.900000E-01   1.00800           0
     10139 MEMB     76       POPC     H4Y      HAL2     0.900000E-01   1.00800           0
     10140 MEMB     76       POPC     C35      CTL2    -0.180000       12.0110           0
     10141 MEMB     76       POPC     H5X      HAL2     0.900000E-01   1.00800           0
     10142 MEMB     76       POPC     H5Y      HAL2     0.900000E-01   1.00800           0
     10143 MEMB     76       POPC     C36      CTL2    -0.180000       12.0110           0
     10144 MEMB     76       POPC     H6X      HAL2     0.900000E-01   1.00800           0
     10145 MEMB     76       POPC     H6Y      HAL2     0.900000E-01   1.00800           0
     10146 MEMB     76       POPC     C37      CTL2    -0.180000       12.0110           0
     10147 MEMB     76       POPC     H7X      HAL2     0.900000E-01   1.00800           0
     10148 MEMB     76       POPC     H7Y      HAL2     0.900000E-01   1.00800           0
     10149 MEMB     76       POPC     C38      CTL2    -0.180000       12.0110           0
     10150 MEMB     76       POPC     H8X      HAL2     0.900000E-01   1.00800           0
     10151 MEMB     76       POPC     H8Y      HAL2     0.900000E-01   1.00800           0
     10152 MEMB     76       POPC     C39      CTL2    -0.180000       12.0110           0
     10153 MEMB     76       POPC     H9X      HAL2     0.900000E-01   1.00800           0
     10154 MEMB     76       POPC     H9Y      HAL2     0.900000E-01   1.00800           0
     10155 MEMB     76       POPC     C310     CTL2    -0.180000       12.0110           0
     10156 MEMB     76       POPC     H10X     HAL2     0.900000E-01   1.00800           0
     10157 MEMB     76       POPC     H10Y     HAL2     0.900000E-01   1.00800           0
     10158 MEMB     76       POPC     C311     CTL2    -0.180000       12.0110           0
     10159 MEMB     76       POPC     H11X     HAL2     0.900000E-01   1.00800           0
     10160 MEMB     76       POPC     H11Y     HAL2     0.900000E-01   1.00800           0
     10161 MEMB     76       POPC     C312     CTL2    -0.180000       12.0110           0
     10162 MEMB     76       POPC     H12X     HAL2     0.900000E-01   1.00800           0
     10163 MEMB     76       POPC     H12Y     HAL2     0.900000E-01   1.00800           0
     10164 MEMB     76       POPC     C313     CTL2    -0.180000       12.0110           0
     10165 MEMB     76       POPC     H13X     HAL2     0.900000E-01   1.00800           0
     10166 MEMB     76       POPC     H13Y     HAL2     0.900000E-01   1.00800           0
     10167 MEMB     76       POPC     C314     CTL2    -0.180000       12.0110           0
     10168 MEMB     76       POPC     H14X     HAL2     0.900000E-01   1.00800           0
     10169 MEMB     76       POPC     H14Y     HAL2     0.900000E-01   1.00800           0
     10170 MEMB     76       POPC     C315     CTL2    -0.180000       12.0110           0
     10171 MEMB     76       POPC     H15X     HAL2     0.900000E-01   1.00800           0
     10172 MEMB     76       POPC     H15Y     HAL2     0.900000E-01   1.00800           0
     10173 MEMB     76       POPC     C316     CTL3    -0.270000       12.0110           0
     10174 MEMB     76       POPC     H16X     HAL3     0.900000E-01   1.00800           0
     10175 MEMB     76       POPC     H16Y     HAL3     0.900000E-01   1.00800           0
     10176 MEMB     76       POPC     H16Z     HAL3     0.900000E-01   1.00800           0
     10177 MEMB     77       POPC     N        NTL     -0.600000       14.0070           0
     10178 MEMB     77       POPC     C12      CTL2    -0.100000       12.0110           0
     10179 MEMB     77       POPC     H12A     HL       0.250000       1.00800           0
     10180 MEMB     77       POPC     H12B     HL       0.250000       1.00800           0
     10181 MEMB     77       POPC     C13      CTL5    -0.350000       12.0110           0
     10182 MEMB     77       POPC     H13A     HL       0.250000       1.00800           0
     10183 MEMB     77       POPC     H13B     HL       0.250000       1.00800           0
     10184 MEMB     77       POPC     H13C     HL       0.250000       1.00800           0
     10185 MEMB     77       POPC     C14      CTL5    -0.350000       12.0110           0
     10186 MEMB     77       POPC     H14A     HL       0.250000       1.00800           0
     10187 MEMB     77       POPC     H14B     HL       0.250000       1.00800           0
     10188 MEMB     77       POPC     H14C     HL       0.250000       1.00800           0
     10189 MEMB     77       POPC     C15      CTL5    -0.350000       12.0110           0
     10190 MEMB     77       POPC     H15A     HL       0.250000       1.00800           0
     10191 MEMB     77       POPC     H15B     HL       0.250000       1.00800           0
     10192 MEMB     77       POPC     H15C     HL       0.250000       1.00800           0
     10193 MEMB     77       POPC     C11      CTL2    -0.800000E-01   12.0110           0
     10194 MEMB     77       POPC     H11A     HAL2     0.900000E-01   1.00800           0
     10195 MEMB     77       POPC     H11B     HAL2     0.900000E-01   1.00800           0
     10196 MEMB     77       POPC     P        PL        1.50000       30.9740           0
     10197 MEMB     77       POPC     O13      O2L     -0.780000       15.9994           0
     10198 MEMB     77       POPC     O14      O2L     -0.780000       15.9994           0
     10199 MEMB     77       POPC     O12      OSLP    -0.570000       15.9994           0
     10200 MEMB     77       POPC     O11      OSLP    -0.570000       15.9994           0
     10201 MEMB     77       POPC     C1       CTL2    -0.800000E-01   12.0110           0
     10202 MEMB     77       POPC     HA       HAL2     0.900000E-01   1.00800           0
     10203 MEMB     77       POPC     HB       HAL2     0.900000E-01   1.00800           0
     10204 MEMB     77       POPC     C2       CTL1     0.170000       12.0110           0
     10205 MEMB     77       POPC     HS       HAL1     0.900000E-01   1.00800           0
     10206 MEMB     77       POPC     O21      OSL     -0.490000       15.9994           0
     10207 MEMB     77       POPC     C21      CL       0.900000       12.0110           0
     10208 MEMB     77       POPC     O22      OBL     -0.630000       15.9994           0
     10209 MEMB     77       POPC     C22      CTL2    -0.220000       12.0110           0
     10210 MEMB     77       POPC     H2R      HAL2     0.900000E-01   1.00800           0
     10211 MEMB     77       POPC     H2S      HAL2     0.900000E-01   1.00800           0
     10212 MEMB     77       POPC     C3       CTL2     0.800000E-01   12.0110           0
     10213 MEMB     77       POPC     HX       HAL2     0.900000E-01   1.00800           0
     10214 MEMB     77       POPC     HY       HAL2     0.900000E-01   1.00800           0
     10215 MEMB     77       POPC     O31      OSL     -0.490000       15.9994           0
     10216 MEMB     77       POPC     C31      CL       0.900000       12.0110           0
     10217 MEMB     77       POPC     O32      OBL     -0.630000       15.9994           0
     10218 MEMB     77       POPC     C32      CTL2    -0.220000       12.0110           0
     10219 MEMB     77       POPC     H2X      HAL2     0.900000E-01   1.00800           0
     10220 MEMB     77       POPC     H2Y      HAL2     0.900000E-01   1.00800           0
     10221 MEMB     77       POPC     C23      CTL2    -0.180000       12.0110           0
     10222 MEMB     77       POPC     H3R      HAL2     0.900000E-01   1.00800           0
     10223 MEMB     77       POPC     H3S      HAL2     0.900000E-01   1.00800           0
     10224 MEMB     77       POPC     C24      CTL2    -0.180000       12.0110           0
     10225 MEMB     77       POPC     H4R      HAL2     0.900000E-01   1.00800           0
     10226 MEMB     77       POPC     H4S      HAL2     0.900000E-01   1.00800           0
     10227 MEMB     77       POPC     C25      CTL2    -0.180000       12.0110           0
     10228 MEMB     77       POPC     H5R      HAL2     0.900000E-01   1.00800           0
     10229 MEMB     77       POPC     H5S      HAL2     0.900000E-01   1.00800           0
     10230 MEMB     77       POPC     C26      CTL2    -0.180000       12.0110           0
     10231 MEMB     77       POPC     H6R      HAL2     0.900000E-01   1.00800           0
     10232 MEMB     77       POPC     H6S      HAL2     0.900000E-01   1.00800           0
     10233 MEMB     77       POPC     C27      CTL2    -0.180000       12.0110           0
     10234 MEMB     77       POPC     H7R      HAL2     0.900000E-01   1.00800           0
     10235 MEMB     77       POPC     H7S      HAL2     0.900000E-01   1.00800           0
     10236 MEMB     77       POPC     C28      CTL2    -0.180000       12.0110           0
     10237 MEMB     77       POPC     H8R      HAL2     0.900000E-01   1.00800           0
     10238 MEMB     77       POPC     H8S      HAL2     0.900000E-01   1.00800           0
     10239 MEMB     77       POPC     C29      CEL1    -0.150000       12.0110           0
     10240 MEMB     77       POPC     H91      HEL1     0.150000       1.00800           0
     10241 MEMB     77       POPC     C210     CEL1    -0.150000       12.0110           0
     10242 MEMB     77       POPC     H101     HEL1     0.150000       1.00800           0
     10243 MEMB     77       POPC     C211     CTL2    -0.180000       12.0110           0
     10244 MEMB     77       POPC     H11R     HAL2     0.900000E-01   1.00800           0
     10245 MEMB     77       POPC     H11S     HAL2     0.900000E-01   1.00800           0
     10246 MEMB     77       POPC     C212     CTL2    -0.180000       12.0110           0
     10247 MEMB     77       POPC     H12R     HAL2     0.900000E-01   1.00800           0
     10248 MEMB     77       POPC     H12S     HAL2     0.900000E-01   1.00800           0
     10249 MEMB     77       POPC     C213     CTL2    -0.180000       12.0110           0
     10250 MEMB     77       POPC     H13R     HAL2     0.900000E-01   1.00800           0
     10251 MEMB     77       POPC     H13S     HAL2     0.900000E-01   1.00800           0
     10252 MEMB     77       POPC     C214     CTL2    -0.180000       12.0110           0
     10253 MEMB     77       POPC     H14R     HAL2     0.900000E-01   1.00800           0
     10254 MEMB     77       POPC     H14S     HAL2     0.900000E-01   1.00800           0
     10255 MEMB     77       POPC     C215     CTL2    -0.180000       12.0110           0
     10256 MEMB     77       POPC     H15R     HAL2     0.900000E-01   1.00800           0
     10257 MEMB     77       POPC     H15S     HAL2     0.900000E-01   1.00800           0
     10258 MEMB     77       POPC     C216     CTL2    -0.180000       12.0110           0
     10259 MEMB     77       POPC     H16R     HAL2     0.900000E-01   1.00800           0
     10260 MEMB     77       POPC     H16S     HAL2     0.900000E-01   1.00800           0
     10261 MEMB     77       POPC     C217     CTL2    -0.180000       12.0110           0
     10262 MEMB     77       POPC     H17R     HAL2     0.900000E-01   1.00800           0
     10263 MEMB     77       POPC     H17S     HAL2     0.900000E-01   1.00800           0
     10264 MEMB     77       POPC     C218     CTL3    -0.270000       12.0110           0
     10265 MEMB     77       POPC     H18R     HAL3     0.900000E-01   1.00800           0
     10266 MEMB     77       POPC     H18S     HAL3     0.900000E-01   1.00800           0
     10267 MEMB     77       POPC     H18T     HAL3     0.900000E-01   1.00800           0
     10268 MEMB     77       POPC     C33      CTL2    -0.180000       12.0110           0
     10269 MEMB     77       POPC     H3X      HAL2     0.900000E-01   1.00800           0
     10270 MEMB     77       POPC     H3Y      HAL2     0.900000E-01   1.00800           0
     10271 MEMB     77       POPC     C34      CTL2    -0.180000       12.0110           0
     10272 MEMB     77       POPC     H4X      HAL2     0.900000E-01   1.00800           0
     10273 MEMB     77       POPC     H4Y      HAL2     0.900000E-01   1.00800           0
     10274 MEMB     77       POPC     C35      CTL2    -0.180000       12.0110           0
     10275 MEMB     77       POPC     H5X      HAL2     0.900000E-01   1.00800           0
     10276 MEMB     77       POPC     H5Y      HAL2     0.900000E-01   1.00800           0
     10277 MEMB     77       POPC     C36      CTL2    -0.180000       12.0110           0
     10278 MEMB     77       POPC     H6X      HAL2     0.900000E-01   1.00800           0
     10279 MEMB     77       POPC     H6Y      HAL2     0.900000E-01   1.00800           0
     10280 MEMB     77       POPC     C37      CTL2    -0.180000       12.0110           0
     10281 MEMB     77       POPC     H7X      HAL2     0.900000E-01   1.00800           0
     10282 MEMB     77       POPC     H7Y      HAL2     0.900000E-01   1.00800           0
     10283 MEMB     77       POPC     C38      CTL2    -0.180000       12.0110           0
     10284 MEMB     77       POPC     H8X      HAL2     0.900000E-01   1.00800           0
     10285 MEMB     77       POPC     H8Y      HAL2     0.900000E-01   1.00800           0
     10286 MEMB     77       POPC     C39      CTL2    -0.180000       12.0110           0
     10287 MEMB     77       POPC     H9X      HAL2     0.900000E-01   1.00800           0
     10288 MEMB     77       POPC     H9Y      HAL2     0.900000E-01   1.00800           0
     10289 MEMB     77       POPC     C310     CTL2    -0.180000       12.0110           0
     10290 MEMB     77       POPC     H10X     HAL2     0.900000E-01   1.00800           0
     10291 MEMB     77       POPC     H10Y     HAL2     0.900000E-01   1.00800           0
     10292 MEMB     77       POPC     C311     CTL2    -0.180000       12.0110           0
     10293 MEMB     77       POPC     H11X     HAL2     0.900000E-01   1.00800           0
     10294 MEMB     77       POPC     H11Y     HAL2     0.900000E-01   1.00800           0
     10295 MEMB     77       POPC     C312     CTL2    -0.180000       12.0110           0
     10296 MEMB     77       POPC     H12X     HAL2     0.900000E-01   1.00800           0
     10297 MEMB     77       POPC     H12Y     HAL2     0.900000E-01   1.00800           0
     10298 MEMB     77       POPC     C313     CTL2    -0.180000       12.0110           0
     10299 MEMB     77       POPC     H13X     HAL2     0.900000E-01   1.00800           0
     10300 MEMB     77       POPC     H13Y     HAL2     0.900000E-01   1.00800           0
     10301 MEMB     77       POPC     C314     CTL2    -0.180000       12.0110           0
     10302 MEMB     77       POPC     H14X     HAL2     0.900000E-01   1.00800           0
     10303 MEMB     77       POPC     H14Y     HAL2     0.900000E-01   1.00800           0
     10304 MEMB     77       POPC     C315     CTL2    -0.180000       12.0110           0
     10305 MEMB     77       POPC     H15X     HAL2     0.900000E-01   1.00800           0
     10306 MEMB     77       POPC     H15Y     HAL2     0.900000E-01   1.00800           0
     10307 MEMB     77       POPC     C316     CTL3    -0.270000       12.0110           0
     10308 MEMB     77       POPC     H16X     HAL3     0.900000E-01   1.00800           0
     10309 MEMB     77       POPC     H16Y     HAL3     0.900000E-01   1.00800           0
     10310 MEMB     77       POPC     H16Z     HAL3     0.900000E-01   1.00800           0
     10311 MEMB     78       POPC     N        NTL     -0.600000       14.0070           0
     10312 MEMB     78       POPC     C12      CTL2    -0.100000       12.0110           0
     10313 MEMB     78       POPC     H12A     HL       0.250000       1.00800           0
     10314 MEMB     78       POPC     H12B     HL       0.250000       1.00800           0
     10315 MEMB     78       POPC     C13      CTL5    -0.350000       12.0110           0
     10316 MEMB     78       POPC     H13A     HL       0.250000       1.00800           0
     10317 MEMB     78       POPC     H13B     HL       0.250000       1.00800           0
     10318 MEMB     78       POPC     H13C     HL       0.250000       1.00800           0
     10319 MEMB     78       POPC     C14      CTL5    -0.350000       12.0110           0
     10320 MEMB     78       POPC     H14A     HL       0.250000       1.00800           0
     10321 MEMB     78       POPC     H14B     HL       0.250000       1.00800           0
     10322 MEMB     78       POPC     H14C     HL       0.250000       1.00800           0
     10323 MEMB     78       POPC     C15      CTL5    -0.350000       12.0110           0
     10324 MEMB     78       POPC     H15A     HL       0.250000       1.00800           0
     10325 MEMB     78       POPC     H15B     HL       0.250000       1.00800           0
     10326 MEMB     78       POPC     H15C     HL       0.250000       1.00800           0
     10327 MEMB     78       POPC     C11      CTL2    -0.800000E-01   12.0110           0
     10328 MEMB     78       POPC     H11A     HAL2     0.900000E-01   1.00800           0
     10329 MEMB     78       POPC     H11B     HAL2     0.900000E-01   1.00800           0
     10330 MEMB     78       POPC     P        PL        1.50000       30.9740           0
     10331 MEMB     78       POPC     O13      O2L     -0.780000       15.9994           0
     10332 MEMB     78       POPC     O14      O2L     -0.780000       15.9994           0
     10333 MEMB     78       POPC     O12      OSLP    -0.570000       15.9994           0
     10334 MEMB     78       POPC     O11      OSLP    -0.570000       15.9994           0
     10335 MEMB     78       POPC     C1       CTL2    -0.800000E-01   12.0110           0
     10336 MEMB     78       POPC     HA       HAL2     0.900000E-01   1.00800           0
     10337 MEMB     78       POPC     HB       HAL2     0.900000E-01   1.00800           0
     10338 MEMB     78       POPC     C2       CTL1     0.170000       12.0110           0
     10339 MEMB     78       POPC     HS       HAL1     0.900000E-01   1.00800           0
     10340 MEMB     78       POPC     O21      OSL     -0.490000       15.9994           0
     10341 MEMB     78       POPC     C21      CL       0.900000       12.0110           0
     10342 MEMB     78       POPC     O22      OBL     -0.630000       15.9994           0
     10343 MEMB     78       POPC     C22      CTL2    -0.220000       12.0110           0
     10344 MEMB     78       POPC     H2R      HAL2     0.900000E-01   1.00800           0
     10345 MEMB     78       POPC     H2S      HAL2     0.900000E-01   1.00800           0
     10346 MEMB     78       POPC     C3       CTL2     0.800000E-01   12.0110           0
     10347 MEMB     78       POPC     HX       HAL2     0.900000E-01   1.00800           0
     10348 MEMB     78       POPC     HY       HAL2     0.900000E-01   1.00800           0
     10349 MEMB     78       POPC     O31      OSL     -0.490000       15.9994           0
     10350 MEMB     78       POPC     C31      CL       0.900000       12.0110           0
     10351 MEMB     78       POPC     O32      OBL     -0.630000       15.9994           0
     10352 MEMB     78       POPC     C32      CTL2    -0.220000       12.0110           0
     10353 MEMB     78       POPC     H2X      HAL2     0.900000E-01   1.00800           0
     10354 MEMB     78       POPC     H2Y      HAL2     0.900000E-01   1.00800           0
     10355 MEMB     78       POPC     C23      CTL2    -0.180000       12.0110           0
     10356 MEMB     78       POPC     H3R      HAL2     0.900000E-01   1.00800           0
     10357 MEMB     78       POPC     H3S      HAL2     0.900000E-01   1.00800           0
     10358 MEMB     78       POPC     C24      CTL2    -0.180000       12.0110           0
     10359 MEMB     78       POPC     H4R      HAL2     0.900000E-01   1.00800           0
     10360 MEMB     78       POPC     H4S      HAL2     0.900000E-01   1.00800           0
     10361 MEMB     78       POPC     C25      CTL2    -0.180000       12.0110           0
     10362 MEMB     78       POPC     H5R      HAL2     0.900000E-01   1.00800           0
     10363 MEMB     78       POPC     H5S      HAL2     0.900000E-01   1.00800           0
     10364 MEMB     78       POPC     C26      CTL2    -0.180000       12.0110           0
     10365 MEMB     78       POPC     H6R      HAL2     0.900000E-01   1.00800           0
     10366 MEMB     78       POPC     H6S      HAL2     0.900000E-01   1.00800           0
     10367 MEMB     78       POPC     C27      CTL2    -0.180000       12.0110           0
     10368 MEMB     78       POPC     H7R      HAL2     0.900000E-01   1.00800           0
     10369 MEMB     78       POPC     H7S      HAL2     0.900000E-01   1.00800           0
     10370 MEMB     78       POPC     C28      CTL2    -0.180000       12.0110           0
     10371 MEMB     78       POPC     H8R      HAL2     0.900000E-01   1.00800           0
     10372 MEMB     78       POPC     H8S      HAL2     0.900000E-01   1.00800           0
     10373 MEMB     78       POPC     C29      CEL1    -0.150000       12.0110           0
     10374 MEMB     78       POPC     H91      HEL1     0.150000       1.00800           0
     10375 MEMB     78       POPC     C210     CEL1    -0.150000       12.0110           0
     10376 MEMB     78       POPC     H101     HEL1     0.150000       1.00800           0
     10377 MEMB     78       POPC     C211     CTL2    -0.180000       12.0110           0
     10378 MEMB     78       POPC     H11R     HAL2     0.900000E-01   1.00800           0
     10379 MEMB     78       POPC     H11S     HAL2     0.900000E-01   1.00800           0
     10380 MEMB     78       POPC     C212     CTL2    -0.180000       12.0110           0
     10381 MEMB     78       POPC     H12R     HAL2     0.900000E-01   1.00800           0
     10382 MEMB     78       POPC     H12S     HAL2     0.900000E-01   1.00800           0
     10383 MEMB     78       POPC     C213     CTL2    -0.180000       12.0110           0
     10384 MEMB     78       POPC     H13R     HAL2     0.900000E-01   1.00800           0
     10385 MEMB     78       POPC     H13S     HAL2     0.900000E-01   1.00800           0
     10386 MEMB     78       POPC     C214     CTL2    -0.180000       12.0110           0
     10387 MEMB     78       POPC     H14R     HAL2     0.900000E-01   1.00800           0
     10388 MEMB     78       POPC     H14S     HAL2     0.900000E-01   1.00800           0
     10389 MEMB     78       POPC     C215     CTL2    -0.180000       12.0110           0
     10390 MEMB     78       POPC     H15R     HAL2     0.900000E-01   1.00800           0
     10391 MEMB     78       POPC     H15S     HAL2     0.900000E-01   1.00800           0
     10392 MEMB     78       POPC     C216     CTL2    -0.180000       12.0110           0
     10393 MEMB     78       POPC     H16R     HAL2     0.900000E-01   1.00800           0
     10394 MEMB     78       POPC     H16S     HAL2     0.900000E-01   1.00800           0
     10395 MEMB     78       POPC     C217     CTL2    -0.180000       12.0110           0
     10396 MEMB     78       POPC     H17R     HAL2     0.900000E-01   1.00800           0
     10397 MEMB     78       POPC     H17S     HAL2     0.900000E-01   1.00800           0
     10398 MEMB     78       POPC     C218     CTL3    -0.270000       12.0110           0
     10399 MEMB     78       POPC     H18R     HAL3     0.900000E-01   1.00800           0
     10400 MEMB     78       POPC     H18S     HAL3     0.900000E-01   1.00800           0
     10401 MEMB     78       POPC     H18T     HAL3     0.900000E-01   1.00800           0
     10402 MEMB     78       POPC     C33      CTL2    -0.180000       12.0110           0
     10403 MEMB     78       POPC     H3X      HAL2     0.900000E-01   1.00800           0
     10404 MEMB     78       POPC     H3Y      HAL2     0.900000E-01   1.00800           0
     10405 MEMB     78       POPC     C34      CTL2    -0.180000       12.0110           0
     10406 MEMB     78       POPC     H4X      HAL2     0.900000E-01   1.00800           0
     10407 MEMB     78       POPC     H4Y      HAL2     0.900000E-01   1.00800           0
     10408 MEMB     78       POPC     C35      CTL2    -0.180000       12.0110           0
     10409 MEMB     78       POPC     H5X      HAL2     0.900000E-01   1.00800           0
     10410 MEMB     78       POPC     H5Y      HAL2     0.900000E-01   1.00800           0
     10411 MEMB     78       POPC     C36      CTL2    -0.180000       12.0110           0
     10412 MEMB     78       POPC     H6X      HAL2     0.900000E-01   1.00800           0
     10413 MEMB     78       POPC     H6Y      HAL2     0.900000E-01   1.00800           0
     10414 MEMB     78       POPC     C37      CTL2    -0.180000       12.0110           0
     10415 MEMB     78       POPC     H7X      HAL2     0.900000E-01   1.00800           0
     10416 MEMB     78       POPC     H7Y      HAL2     0.900000E-01   1.00800           0
     10417 MEMB     78       POPC     C38      CTL2    -0.180000       12.0110           0
     10418 MEMB     78       POPC     H8X      HAL2     0.900000E-01   1.00800           0
     10419 MEMB     78       POPC     H8Y      HAL2     0.900000E-01   1.00800           0
     10420 MEMB     78       POPC     C39      CTL2    -0.180000       12.0110           0
     10421 MEMB     78       POPC     H9X      HAL2     0.900000E-01   1.00800           0
     10422 MEMB     78       POPC     H9Y      HAL2     0.900000E-01   1.00800           0
     10423 MEMB     78       POPC     C310     CTL2    -0.180000       12.0110           0
     10424 MEMB     78       POPC     H10X     HAL2     0.900000E-01   1.00800           0
     10425 MEMB     78       POPC     H10Y     HAL2     0.900000E-01   1.00800           0
     10426 MEMB     78       POPC     C311     CTL2    -0.180000       12.0110           0
     10427 MEMB     78       POPC     H11X     HAL2     0.900000E-01   1.00800           0
     10428 MEMB     78       POPC     H11Y     HAL2     0.900000E-01   1.00800           0
     10429 MEMB     78       POPC     C312     CTL2    -0.180000       12.0110           0
     10430 MEMB     78       POPC     H12X     HAL2     0.900000E-01   1.00800           0
     10431 MEMB     78       POPC     H12Y     HAL2     0.900000E-01   1.00800           0
     10432 MEMB     78       POPC     C313     CTL2    -0.180000       12.0110           0
     10433 MEMB     78       POPC     H13X     HAL2     0.900000E-01   1.00800           0
     10434 MEMB     78       POPC     H13Y     HAL2     0.900000E-01   1.00800           0
     10435 MEMB     78       POPC     C314     CTL2    -0.180000       12.0110           0
     10436 MEMB     78       POPC     H14X     HAL2     0.900000E-01   1.00800           0
     10437 MEMB     78       POPC     H14Y     HAL2     0.900000E-01   1.00800           0
     10438 MEMB     78       POPC     C315     CTL2    -0.180000       12.0110           0
     10439 MEMB     78       POPC     H15X     HAL2     0.900000E-01   1.00800           0
     10440 MEMB     78       POPC     H15Y     HAL2     0.900000E-01   1.00800           0
     10441 MEMB     78       POPC     C316     CTL3    -0.270000       12.0110           0
     10442 MEMB     78       POPC     H16X     HAL3     0.900000E-01   1.00800           0
     10443 MEMB     78       POPC     H16Y     HAL3     0.900000E-01   1.00800           0
     10444 MEMB     78       POPC     H16Z     HAL3     0.900000E-01   1.00800           0
     10445 MEMB     79       POPC     N        NTL     -0.600000       14.0070           0
     10446 MEMB     79       POPC     C12      CTL2    -0.100000       12.0110           0
     10447 MEMB     79       POPC     H12A     HL       0.250000       1.00800           0
     10448 MEMB     79       POPC     H12B     HL       0.250000       1.00800           0
     10449 MEMB     79       POPC     C13      CTL5    -0.350000       12.0110           0
     10450 MEMB     79       POPC     H13A     HL       0.250000       1.00800           0
     10451 MEMB     79       POPC     H13B     HL       0.250000       1.00800           0
     10452 MEMB     79       POPC     H13C     HL       0.250000       1.00800           0
     10453 MEMB     79       POPC     C14      CTL5    -0.350000       12.0110           0
     10454 MEMB     79       POPC     H14A     HL       0.250000       1.00800           0
     10455 MEMB     79       POPC     H14B     HL       0.250000       1.00800           0
     10456 MEMB     79       POPC     H14C     HL       0.250000       1.00800           0
     10457 MEMB     79       POPC     C15      CTL5    -0.350000       12.0110           0
     10458 MEMB     79       POPC     H15A     HL       0.250000       1.00800           0
     10459 MEMB     79       POPC     H15B     HL       0.250000       1.00800           0
     10460 MEMB     79       POPC     H15C     HL       0.250000       1.00800           0
     10461 MEMB     79       POPC     C11      CTL2    -0.800000E-01   12.0110           0
     10462 MEMB     79       POPC     H11A     HAL2     0.900000E-01   1.00800           0
     10463 MEMB     79       POPC     H11B     HAL2     0.900000E-01   1.00800           0
     10464 MEMB     79       POPC     P        PL        1.50000       30.9740           0
     10465 MEMB     79       POPC     O13      O2L     -0.780000       15.9994           0
     10466 MEMB     79       POPC     O14      O2L     -0.780000       15.9994           0
     10467 MEMB     79       POPC     O12      OSLP    -0.570000       15.9994           0
     10468 MEMB     79       POPC     O11      OSLP    -0.570000       15.9994           0
     10469 MEMB     79       POPC     C1       CTL2    -0.800000E-01   12.0110           0
     10470 MEMB     79       POPC     HA       HAL2     0.900000E-01   1.00800           0
     10471 MEMB     79       POPC     HB       HAL2     0.900000E-01   1.00800           0
     10472 MEMB     79       POPC     C2       CTL1     0.170000       12.0110           0
     10473 MEMB     79       POPC     HS       HAL1     0.900000E-01   1.00800           0
     10474 MEMB     79       POPC     O21      OSL     -0.490000       15.9994           0
     10475 MEMB     79       POPC     C21      CL       0.900000       12.0110           0
     10476 MEMB     79       POPC     O22      OBL     -0.630000       15.9994           0
     10477 MEMB     79       POPC     C22      CTL2    -0.220000       12.0110           0
     10478 MEMB     79       POPC     H2R      HAL2     0.900000E-01   1.00800           0
     10479 MEMB     79       POPC     H2S      HAL2     0.900000E-01   1.00800           0
     10480 MEMB     79       POPC     C3       CTL2     0.800000E-01   12.0110           0
     10481 MEMB     79       POPC     HX       HAL2     0.900000E-01   1.00800           0
     10482 MEMB     79       POPC     HY       HAL2     0.900000E-01   1.00800           0
     10483 MEMB     79       POPC     O31      OSL     -0.490000       15.9994           0
     10484 MEMB     79       POPC     C31      CL       0.900000       12.0110           0
     10485 MEMB     79       POPC     O32      OBL     -0.630000       15.9994           0
     10486 MEMB     79       POPC     C32      CTL2    -0.220000       12.0110           0
     10487 MEMB     79       POPC     H2X      HAL2     0.900000E-01   1.00800           0
     10488 MEMB     79       POPC     H2Y      HAL2     0.900000E-01   1.00800           0
     10489 MEMB     79       POPC     C23      CTL2    -0.180000       12.0110           0
     10490 MEMB     79       POPC     H3R      HAL2     0.900000E-01   1.00800           0
     10491 MEMB     79       POPC     H3S      HAL2     0.900000E-01   1.00800           0
     10492 MEMB     79       POPC     C24      CTL2    -0.180000       12.0110           0
     10493 MEMB     79       POPC     H4R      HAL2     0.900000E-01   1.00800           0
     10494 MEMB     79       POPC     H4S      HAL2     0.900000E-01   1.00800           0
     10495 MEMB     79       POPC     C25      CTL2    -0.180000       12.0110           0
     10496 MEMB     79       POPC     H5R      HAL2     0.900000E-01   1.00800           0
     10497 MEMB     79       POPC     H5S      HAL2     0.900000E-01   1.00800           0
     10498 MEMB     79       POPC     C26      CTL2    -0.180000       12.0110           0
     10499 MEMB     79       POPC     H6R      HAL2     0.900000E-01   1.00800           0
     10500 MEMB     79       POPC     H6S      HAL2     0.900000E-01   1.00800           0
     10501 MEMB     79       POPC     C27      CTL2    -0.180000       12.0110           0
     10502 MEMB     79       POPC     H7R      HAL2     0.900000E-01   1.00800           0
     10503 MEMB     79       POPC     H7S      HAL2     0.900000E-01   1.00800           0
     10504 MEMB     79       POPC     C28      CTL2    -0.180000       12.0110           0
     10505 MEMB     79       POPC     H8R      HAL2     0.900000E-01   1.00800           0
     10506 MEMB     79       POPC     H8S      HAL2     0.900000E-01   1.00800           0
     10507 MEMB     79       POPC     C29      CEL1    -0.150000       12.0110           0
     10508 MEMB     79       POPC     H91      HEL1     0.150000       1.00800           0
     10509 MEMB     79       POPC     C210     CEL1    -0.150000       12.0110           0
     10510 MEMB     79       POPC     H101     HEL1     0.150000       1.00800           0
     10511 MEMB     79       POPC     C211     CTL2    -0.180000       12.0110           0
     10512 MEMB     79       POPC     H11R     HAL2     0.900000E-01   1.00800           0
     10513 MEMB     79       POPC     H11S     HAL2     0.900000E-01   1.00800           0
     10514 MEMB     79       POPC     C212     CTL2    -0.180000       12.0110           0
     10515 MEMB     79       POPC     H12R     HAL2     0.900000E-01   1.00800           0
     10516 MEMB     79       POPC     H12S     HAL2     0.900000E-01   1.00800           0
     10517 MEMB     79       POPC     C213     CTL2    -0.180000       12.0110           0
     10518 MEMB     79       POPC     H13R     HAL2     0.900000E-01   1.00800           0
     10519 MEMB     79       POPC     H13S     HAL2     0.900000E-01   1.00800           0
     10520 MEMB     79       POPC     C214     CTL2    -0.180000       12.0110           0
     10521 MEMB     79       POPC     H14R     HAL2     0.900000E-01   1.00800           0
     10522 MEMB     79       POPC     H14S     HAL2     0.900000E-01   1.00800           0
     10523 MEMB     79       POPC     C215     CTL2    -0.180000       12.0110           0
     10524 MEMB     79       POPC     H15R     HAL2     0.900000E-01   1.00800           0
     10525 MEMB     79       POPC     H15S     HAL2     0.900000E-01   1.00800           0
     10526 MEMB     79       POPC     C216     CTL2    -0.180000       12.0110           0
     10527 MEMB     79       POPC     H16R     HAL2     0.900000E-01   1.00800           0
     10528 MEMB     79       POPC     H16S     HAL2     0.900000E-01   1.00800           0
     10529 MEMB     79       POPC     C217     CTL2    -0.180000       12.0110           0
     10530 MEMB     79       POPC     H17R     HAL2     0.900000E-01   1.00800           0
     10531 MEMB     79       POPC     H17S     HAL2     0.900000E-01   1.00800           0
     10532 MEMB     79       POPC     C218     CTL3    -0.270000       12.0110           0
     10533 MEMB     79       POPC     H18R     HAL3     0.900000E-01   1.00800           0
     10534 MEMB     79       POPC     H18S     HAL3     0.900000E-01   1.00800           0
     10535 MEMB     79       POPC     H18T     HAL3     0.900000E-01   1.00800           0
     10536 MEMB     79       POPC     C33      CTL2    -0.180000       12.0110           0
     10537 MEMB     79       POPC     H3X      HAL2     0.900000E-01   1.00800           0
     10538 MEMB     79       POPC     H3Y      HAL2     0.900000E-01   1.00800           0
     10539 MEMB     79       POPC     C34      CTL2    -0.180000       12.0110           0
     10540 MEMB     79       POPC     H4X      HAL2     0.900000E-01   1.00800           0
     10541 MEMB     79       POPC     H4Y      HAL2     0.900000E-01   1.00800           0
     10542 MEMB     79       POPC     C35      CTL2    -0.180000       12.0110           0
     10543 MEMB     79       POPC     H5X      HAL2     0.900000E-01   1.00800           0
     10544 MEMB     79       POPC     H5Y      HAL2     0.900000E-01   1.00800           0
     10545 MEMB     79       POPC     C36      CTL2    -0.180000       12.0110           0
     10546 MEMB     79       POPC     H6X      HAL2     0.900000E-01   1.00800           0
     10547 MEMB     79       POPC     H6Y      HAL2     0.900000E-01   1.00800           0
     10548 MEMB     79       POPC     C37      CTL2    -0.180000       12.0110           0
     10549 MEMB     79       POPC     H7X      HAL2     0.900000E-01   1.00800           0
     10550 MEMB     79       POPC     H7Y      HAL2     0.900000E-01   1.00800           0
     10551 MEMB     79       POPC     C38      CTL2    -0.180000       12.0110           0
     10552 MEMB     79       POPC     H8X      HAL2     0.900000E-01   1.00800           0
     10553 MEMB     79       POPC     H8Y      HAL2     0.900000E-01   1.00800           0
     10554 MEMB     79       POPC     C39      CTL2    -0.180000       12.0110           0
     10555 MEMB     79       POPC     H9X      HAL2     0.900000E-01   1.00800           0
     10556 MEMB     79       POPC     H9Y      HAL2     0.900000E-01   1.00800           0
     10557 MEMB     79       POPC     C310     CTL2    -0.180000       12.0110           0
     10558 MEMB     79       POPC     H10X     HAL2     0.900000E-01   1.00800           0
     10559 MEMB     79       POPC     H10Y     HAL2     0.900000E-01   1.00800           0
     10560 MEMB     79       POPC     C311     CTL2    -0.180000       12.0110           0
     10561 MEMB     79       POPC     H11X     HAL2     0.900000E-01   1.00800           0
     10562 MEMB     79       POPC     H11Y     HAL2     0.900000E-01   1.00800           0
     10563 MEMB     79       POPC     C312     CTL2    -0.180000       12.0110           0
     10564 MEMB     79       POPC     H12X     HAL2     0.900000E-01   1.00800           0
     10565 MEMB     79       POPC     H12Y     HAL2     0.900000E-01   1.00800           0
     10566 MEMB     79       POPC     C313     CTL2    -0.180000       12.0110           0
     10567 MEMB     79       POPC     H13X     HAL2     0.900000E-01   1.00800           0
     10568 MEMB     79       POPC     H13Y     HAL2     0.900000E-01   1.00800           0
     10569 MEMB     79       POPC     C314     CTL2    -0.180000       12.0110           0
     10570 MEMB     79       POPC     H14X     HAL2     0.900000E-01   1.00800           0
     10571 MEMB     79       POPC     H14Y     HAL2     0.900000E-01   1.00800           0
     10572 MEMB     79       POPC     C315     CTL2    -0.180000       12.0110           0
     10573 MEMB     79       POPC     H15X     HAL2     0.900000E-01   1.00800           0
     10574 MEMB     79       POPC     H15Y     HAL2     0.900000E-01   1.00800           0
     10575 MEMB     79       POPC     C316     CTL3    -0.270000       12.0110           0
     10576 MEMB     79       POPC     H16X     HAL3     0.900000E-01   1.00800           0
     10577 MEMB     79       POPC     H16Y     HAL3     0.900000E-01   1.00800           0
     10578 MEMB     79       POPC     H16Z     HAL3     0.900000E-01   1.00800           0
     10579 MEMB     80       POPC     N        NTL     -0.600000       14.0070           0
     10580 MEMB     80       POPC     C12      CTL2    -0.100000       12.0110           0
     10581 MEMB     80       POPC     H12A     HL       0.250000       1.00800           0
     10582 MEMB     80       POPC     H12B     HL       0.250000       1.00800           0
     10583 MEMB     80       POPC     C13      CTL5    -0.350000       12.0110           0
     10584 MEMB     80       POPC     H13A     HL       0.250000       1.00800           0
     10585 MEMB     80       POPC     H13B     HL       0.250000       1.00800           0
     10586 MEMB     80       POPC     H13C     HL       0.250000       1.00800           0
     10587 MEMB     80       POPC     C14      CTL5    -0.350000       12.0110           0
     10588 MEMB     80       POPC     H14A     HL       0.250000       1.00800           0
     10589 MEMB     80       POPC     H14B     HL       0.250000       1.00800           0
     10590 MEMB     80       POPC     H14C     HL       0.250000       1.00800           0
     10591 MEMB     80       POPC     C15      CTL5    -0.350000       12.0110           0
     10592 MEMB     80       POPC     H15A     HL       0.250000       1.00800           0
     10593 MEMB     80       POPC     H15B     HL       0.250000       1.00800           0
     10594 MEMB     80       POPC     H15C     HL       0.250000       1.00800           0
     10595 MEMB     80       POPC     C11      CTL2    -0.800000E-01   12.0110           0
     10596 MEMB     80       POPC     H11A     HAL2     0.900000E-01   1.00800           0
     10597 MEMB     80       POPC     H11B     HAL2     0.900000E-01   1.00800           0
     10598 MEMB     80       POPC     P        PL        1.50000       30.9740           0
     10599 MEMB     80       POPC     O13      O2L     -0.780000       15.9994           0
     10600 MEMB     80       POPC     O14      O2L     -0.780000       15.9994           0
     10601 MEMB     80       POPC     O12      OSLP    -0.570000       15.9994           0
     10602 MEMB     80       POPC     O11      OSLP    -0.570000       15.9994           0
     10603 MEMB     80       POPC     C1       CTL2    -0.800000E-01   12.0110           0
     10604 MEMB     80       POPC     HA       HAL2     0.900000E-01   1.00800           0
     10605 MEMB     80       POPC     HB       HAL2     0.900000E-01   1.00800           0
     10606 MEMB     80       POPC     C2       CTL1     0.170000       12.0110           0
     10607 MEMB     80       POPC     HS       HAL1     0.900000E-01   1.00800           0
     10608 MEMB     80       POPC     O21      OSL     -0.490000       15.9994           0
     10609 MEMB     80       POPC     C21      CL       0.900000       12.0110           0
     10610 MEMB     80       POPC     O22      OBL     -0.630000       15.9994           0
     10611 MEMB     80       POPC     C22      CTL2    -0.220000       12.0110           0
     10612 MEMB     80       POPC     H2R      HAL2     0.900000E-01   1.00800           0
     10613 MEMB     80       POPC     H2S      HAL2     0.900000E-01   1.00800           0
     10614 MEMB     80       POPC     C3       CTL2     0.800000E-01   12.0110           0
     10615 MEMB     80       POPC     HX       HAL2     0.900000E-01   1.00800           0
     10616 MEMB     80       POPC     HY       HAL2     0.900000E-01   1.00800           0
     10617 MEMB     80       POPC     O31      OSL     -0.490000       15.9994           0
     10618 MEMB     80       POPC     C31      CL       0.900000       12.0110           0
     10619 MEMB     80       POPC     O32      OBL     -0.630000       15.9994           0
     10620 MEMB     80       POPC     C32      CTL2    -0.220000       12.0110           0
     10621 MEMB     80       POPC     H2X      HAL2     0.900000E-01   1.00800           0
     10622 MEMB     80       POPC     H2Y      HAL2     0.900000E-01   1.00800           0
     10623 MEMB     80       POPC     C23      CTL2    -0.180000       12.0110           0
     10624 MEMB     80       POPC     H3R      HAL2     0.900000E-01   1.00800           0
     10625 MEMB     80       POPC     H3S      HAL2     0.900000E-01   1.00800           0
     10626 MEMB     80       POPC     C24      CTL2    -0.180000       12.0110           0
     10627 MEMB     80       POPC     H4R      HAL2     0.900000E-01   1.00800           0
     10628 MEMB     80       POPC     H4S      HAL2     0.900000E-01   1.00800           0
     10629 MEMB     80       POPC     C25      CTL2    -0.180000       12.0110           0
     10630 MEMB     80       POPC     H5R      HAL2     0.900000E-01   1.00800           0
     10631 MEMB     80       POPC     H5S      HAL2     0.900000E-01   1.00800           0
     10632 MEMB     80       POPC     C26      CTL2    -0.180000       12.0110           0
     10633 MEMB     80       POPC     H6R      HAL2     0.900000E-01   1.00800           0
     10634 MEMB     80       POPC     H6S      HAL2     0.900000E-01   1.00800           0
     10635 MEMB     80       POPC     C27      CTL2    -0.180000       12.0110           0
     10636 MEMB     80       POPC     H7R      HAL2     0.900000E-01   1.00800           0
     10637 MEMB     80       POPC     H7S      HAL2     0.900000E-01   1.00800           0
     10638 MEMB     80       POPC     C28      CTL2    -0.180000       12.0110           0
     10639 MEMB     80       POPC     H8R      HAL2     0.900000E-01   1.00800           0
     10640 MEMB     80       POPC     H8S      HAL2     0.900000E-01   1.00800           0
     10641 MEMB     80       POPC     C29      CEL1    -0.150000       12.0110           0
     10642 MEMB     80       POPC     H91      HEL1     0.150000       1.00800           0
     10643 MEMB     80       POPC     C210     CEL1    -0.150000       12.0110           0
     10644 MEMB     80       POPC     H101     HEL1     0.150000       1.00800           0
     10645 MEMB     80       POPC     C211     CTL2    -0.180000       12.0110           0
     10646 MEMB     80       POPC     H11R     HAL2     0.900000E-01   1.00800           0
     10647 MEMB     80       POPC     H11S     HAL2     0.900000E-01   1.00800           0
     10648 MEMB     80       POPC     C212     CTL2    -0.180000       12.0110           0
     10649 MEMB     80       POPC     H12R     HAL2     0.900000E-01   1.00800           0
     10650 MEMB     80       POPC     H12S     HAL2     0.900000E-01   1.00800           0
     10651 MEMB     80       POPC     C213     CTL2    -0.180000       12.0110           0
     10652 MEMB     80       POPC     H13R     HAL2     0.900000E-01   1.00800           0
     10653 MEMB     80       POPC     H13S     HAL2     0.900000E-01   1.00800           0
     10654 MEMB     80       POPC     C214     CTL2    -0.180000       12.0110           0
     10655 MEMB     80       POPC     H14R     HAL2     0.900000E-01   1.00800           0
     10656 MEMB     80       POPC     H14S     HAL2     0.900000E-01   1.00800           0
     10657 MEMB     80       POPC     C215     CTL2    -0.180000       12.0110           0
     10658 MEMB     80       POPC     H15R     HAL2     0.900000E-01   1.00800           0
     10659 MEMB     80       POPC     H15S     HAL2     0.900000E-01   1.00800           0
     10660 MEMB     80       POPC     C216     CTL2    -0.180000       12.0110           0
     10661 MEMB     80       POPC     H16R     HAL2     0.900000E-01   1.00800           0
     10662 MEMB     80       POPC     H16S     HAL2     0.900000E-01   1.00800           0
     10663 MEMB     80       POPC     C217     CTL2    -0.180000       12.0110           0
     10664 MEMB     80       POPC     H17R     HAL2     0.900000E-01   1.00800           0
     10665 MEMB     80       POPC     H17S     HAL2     0.900000E-01   1.00800           0
     10666 MEMB     80       POPC     C218     CTL3    -0.270000       12.0110           0
     10667 MEMB     80       POPC     H18R     HAL3     0.900000E-01   1.00800           0
     10668 MEMB     80       POPC     H18S     HAL3     0.900000E-01   1.00800           0
     10669 MEMB     80       POPC     H18T     HAL3     0.900000E-01   1.00800           0
     10670 MEMB     80       POPC     C33      CTL2    -0.180000       12.0110           0
     10671 MEMB     80       POPC     H3X      HAL2     0.900000E-01   1.00800           0
     10672 MEMB     80       POPC     H3Y      HAL2     0.900000E-01   1.00800           0
     10673 MEMB     80       POPC     C34      CTL2    -0.180000       12.0110           0
     10674 MEMB     80       POPC     H4X      HAL2     0.900000E-01   1.00800           0
     10675 MEMB     80       POPC     H4Y      HAL2     0.900000E-01   1.00800           0
     10676 MEMB     80       POPC     C35      CTL2    -0.180000       12.0110           0
     10677 MEMB     80       POPC     H5X      HAL2     0.900000E-01   1.00800           0
     10678 MEMB     80       POPC     H5Y      HAL2     0.900000E-01   1.00800           0
     10679 MEMB     80       POPC     C36      CTL2    -0.180000       12.0110           0
     10680 MEMB     80       POPC     H6X      HAL2     0.900000E-01   1.00800           0
     10681 MEMB     80       POPC     H6Y      HAL2     0.900000E-01   1.00800           0
     10682 MEMB     80       POPC     C37      CTL2    -0.180000       12.0110           0
     10683 MEMB     80       POPC     H7X      HAL2     0.900000E-01   1.00800           0
     10684 MEMB     80       POPC     H7Y      HAL2     0.900000E-01   1.00800           0
     10685 MEMB     80       POPC     C38      CTL2    -0.180000       12.0110           0
     10686 MEMB     80       POPC     H8X      HAL2     0.900000E-01   1.00800           0
     10687 MEMB     80       POPC     H8Y      HAL2     0.900000E-01   1.00800           0
     10688 MEMB     80       POPC     C39      CTL2    -0.180000       12.0110           0
     10689 MEMB     80       POPC     H9X      HAL2     0.900000E-01   1.00800           0
     10690 MEMB     80       POPC     H9Y      HAL2     0.900000E-01   1.00800           0
     10691 MEMB     80       POPC     C310     CTL2    -0.180000       12.0110           0
     10692 MEMB     80       POPC     H10X     HAL2     0.900000E-01   1.00800           0
     10693 MEMB     80       POPC     H10Y     HAL2     0.900000E-01   1.00800           0
     10694 MEMB     80       POPC     C311     CTL2    -0.180000       12.0110           0
     10695 MEMB     80       POPC     H11X     HAL2     0.900000E-01   1.00800           0
     10696 MEMB     80       POPC     H11Y     HAL2     0.900000E-01   1.00800           0
     10697 MEMB     80       POPC     C312     CTL2    -0.180000       12.0110           0
     10698 MEMB     80       POPC     H12X     HAL2     0.900000E-01   1.00800           0
     10699 MEMB     80       POPC     H12Y     HAL2     0.900000E-01   1.00800           0
     10700 MEMB     80       POPC     C313     CTL2    -0.180000       12.0110           0
     10701 MEMB     80       POPC     H13X     HAL2     0.900000E-01   1.00800           0
     10702 MEMB     80       POPC     H13Y     HAL2     0.900000E-01   1.00800           0
     10703 MEMB     80       POPC     C314     CTL2    -0.180000       12.0110           0
     10704 MEMB     80       POPC     H14X     HAL2     0.900000E-01   1.00800           0
     10705 MEMB     80       POPC     H14Y     HAL2     0.900000E-01   1.00800           0
     10706 MEMB     80       POPC     C315     CTL2    -0.180000       12.0110           0
     10707 MEMB     80       POPC     H15X     HAL2     0.900000E-01   1.00800           0
     10708 MEMB     80       POPC     H15Y     HAL2     0.900000E-01   1.00800           0
     10709 MEMB     80       POPC     C316     CTL3    -0.270000       12.0110           0
     10710 MEMB     80       POPC     H16X     HAL3     0.900000E-01   1.00800           0
     10711 MEMB     80       POPC     H16Y     HAL3     0.900000E-01   1.00800           0
     10712 MEMB     80       POPC     H16Z     HAL3     0.900000E-01   1.00800           0
     10713 MEMB     81       POPC     N        NTL     -0.600000       14.0070           0
     10714 MEMB     81       POPC     C12      CTL2    -0.100000       12.0110           0
     10715 MEMB     81       POPC     H12A     HL       0.250000       1.00800           0
     10716 MEMB     81       POPC     H12B     HL       0.250000       1.00800           0
     10717 MEMB     81       POPC     C13      CTL5    -0.350000       12.0110           0
     10718 MEMB     81       POPC     H13A     HL       0.250000       1.00800           0
     10719 MEMB     81       POPC     H13B     HL       0.250000       1.00800           0
     10720 MEMB     81       POPC     H13C     HL       0.250000       1.00800           0
     10721 MEMB     81       POPC     C14      CTL5    -0.350000       12.0110           0
     10722 MEMB     81       POPC     H14A     HL       0.250000       1.00800           0
     10723 MEMB     81       POPC     H14B     HL       0.250000       1.00800           0
     10724 MEMB     81       POPC     H14C     HL       0.250000       1.00800           0
     10725 MEMB     81       POPC     C15      CTL5    -0.350000       12.0110           0
     10726 MEMB     81       POPC     H15A     HL       0.250000       1.00800           0
     10727 MEMB     81       POPC     H15B     HL       0.250000       1.00800           0
     10728 MEMB     81       POPC     H15C     HL       0.250000       1.00800           0
     10729 MEMB     81       POPC     C11      CTL2    -0.800000E-01   12.0110           0
     10730 MEMB     81       POPC     H11A     HAL2     0.900000E-01   1.00800           0
     10731 MEMB     81       POPC     H11B     HAL2     0.900000E-01   1.00800           0
     10732 MEMB     81       POPC     P        PL        1.50000       30.9740           0
     10733 MEMB     81       POPC     O13      O2L     -0.780000       15.9994           0
     10734 MEMB     81       POPC     O14      O2L     -0.780000       15.9994           0
     10735 MEMB     81       POPC     O12      OSLP    -0.570000       15.9994           0
     10736 MEMB     81       POPC     O11      OSLP    -0.570000       15.9994           0
     10737 MEMB     81       POPC     C1       CTL2    -0.800000E-01   12.0110           0
     10738 MEMB     81       POPC     HA       HAL2     0.900000E-01   1.00800           0
     10739 MEMB     81       POPC     HB       HAL2     0.900000E-01   1.00800           0
     10740 MEMB     81       POPC     C2       CTL1     0.170000       12.0110           0
     10741 MEMB     81       POPC     HS       HAL1     0.900000E-01   1.00800           0
     10742 MEMB     81       POPC     O21      OSL     -0.490000       15.9994           0
     10743 MEMB     81       POPC     C21      CL       0.900000       12.0110           0
     10744 MEMB     81       POPC     O22      OBL     -0.630000       15.9994           0
     10745 MEMB     81       POPC     C22      CTL2    -0.220000       12.0110           0
     10746 MEMB     81       POPC     H2R      HAL2     0.900000E-01   1.00800           0
     10747 MEMB     81       POPC     H2S      HAL2     0.900000E-01   1.00800           0
     10748 MEMB     81       POPC     C3       CTL2     0.800000E-01   12.0110           0
     10749 MEMB     81       POPC     HX       HAL2     0.900000E-01   1.00800           0
     10750 MEMB     81       POPC     HY       HAL2     0.900000E-01   1.00800           0
     10751 MEMB     81       POPC     O31      OSL     -0.490000       15.9994           0
     10752 MEMB     81       POPC     C31      CL       0.900000       12.0110           0
     10753 MEMB     81       POPC     O32      OBL     -0.630000       15.9994           0
     10754 MEMB     81       POPC     C32      CTL2    -0.220000       12.0110           0
     10755 MEMB     81       POPC     H2X      HAL2     0.900000E-01   1.00800           0
     10756 MEMB     81       POPC     H2Y      HAL2     0.900000E-01   1.00800           0
     10757 MEMB     81       POPC     C23      CTL2    -0.180000       12.0110           0
     10758 MEMB     81       POPC     H3R      HAL2     0.900000E-01   1.00800           0
     10759 MEMB     81       POPC     H3S      HAL2     0.900000E-01   1.00800           0
     10760 MEMB     81       POPC     C24      CTL2    -0.180000       12.0110           0
     10761 MEMB     81       POPC     H4R      HAL2     0.900000E-01   1.00800           0
     10762 MEMB     81       POPC     H4S      HAL2     0.900000E-01   1.00800           0
     10763 MEMB     81       POPC     C25      CTL2    -0.180000       12.0110           0
     10764 MEMB     81       POPC     H5R      HAL2     0.900000E-01   1.00800           0
     10765 MEMB     81       POPC     H5S      HAL2     0.900000E-01   1.00800           0
     10766 MEMB     81       POPC     C26      CTL2    -0.180000       12.0110           0
     10767 MEMB     81       POPC     H6R      HAL2     0.900000E-01   1.00800           0
     10768 MEMB     81       POPC     H6S      HAL2     0.900000E-01   1.00800           0
     10769 MEMB     81       POPC     C27      CTL2    -0.180000       12.0110           0
     10770 MEMB     81       POPC     H7R      HAL2     0.900000E-01   1.00800           0
     10771 MEMB     81       POPC     H7S      HAL2     0.900000E-01   1.00800           0
     10772 MEMB     81       POPC     C28      CTL2    -0.180000       12.0110           0
     10773 MEMB     81       POPC     H8R      HAL2     0.900000E-01   1.00800           0
     10774 MEMB     81       POPC     H8S      HAL2     0.900000E-01   1.00800           0
     10775 MEMB     81       POPC     C29      CEL1    -0.150000       12.0110           0
     10776 MEMB     81       POPC     H91      HEL1     0.150000       1.00800           0
     10777 MEMB     81       POPC     C210     CEL1    -0.150000       12.0110           0
     10778 MEMB     81       POPC     H101     HEL1     0.150000       1.00800           0
     10779 MEMB     81       POPC     C211     CTL2    -0.180000       12.0110           0
     10780 MEMB     81       POPC     H11R     HAL2     0.900000E-01   1.00800           0
     10781 MEMB     81       POPC     H11S     HAL2     0.900000E-01   1.00800           0
     10782 MEMB     81       POPC     C212     CTL2    -0.180000       12.0110           0
     10783 MEMB     81       POPC     H12R     HAL2     0.900000E-01   1.00800           0
     10784 MEMB     81       POPC     H12S     HAL2     0.900000E-01   1.00800           0
     10785 MEMB     81       POPC     C213     CTL2    -0.180000       12.0110           0
     10786 MEMB     81       POPC     H13R     HAL2     0.900000E-01   1.00800           0
     10787 MEMB     81       POPC     H13S     HAL2     0.900000E-01   1.00800           0
     10788 MEMB     81       POPC     C214     CTL2    -0.180000       12.0110           0
     10789 MEMB     81       POPC     H14R     HAL2     0.900000E-01   1.00800           0
     10790 MEMB     81       POPC     H14S     HAL2     0.900000E-01   1.00800           0
     10791 MEMB     81       POPC     C215     CTL2    -0.180000       12.0110           0
     10792 MEMB     81       POPC     H15R     HAL2     0.900000E-01   1.00800           0
     10793 MEMB     81       POPC     H15S     HAL2     0.900000E-01   1.00800           0
     10794 MEMB     81       POPC     C216     CTL2    -0.180000       12.0110           0
     10795 MEMB     81       POPC     H16R     HAL2     0.900000E-01   1.00800           0
     10796 MEMB     81       POPC     H16S     HAL2     0.900000E-01   1.00800           0
     10797 MEMB     81       POPC     C217     CTL2    -0.180000       12.0110           0
     10798 MEMB     81       POPC     H17R     HAL2     0.900000E-01   1.00800           0
     10799 MEMB     81       POPC     H17S     HAL2     0.900000E-01   1.00800           0
     10800 MEMB     81       POPC     C218     CTL3    -0.270000       12.0110           0
     10801 MEMB     81       POPC     H18R     HAL3     0.900000E-01   1.00800           0
     10802 MEMB     81       POPC     H18S     HAL3     0.900000E-01   1.00800           0
     10803 MEMB     81       POPC     H18T     HAL3     0.900000E-01   1.00800           0
     10804 MEMB     81       POPC     C33      CTL2    -0.180000       12.0110           0
     10805 MEMB     81       POPC     H3X      HAL2     0.900000E-01   1.00800           0
     10806 MEMB     81       POPC     H3Y      HAL2     0.900000E-01   1.00800           0
     10807 MEMB     81       POPC     C34      CTL2    -0.180000       12.0110           0
     10808 MEMB     81       POPC     H4X      HAL2     0.900000E-01   1.00800           0
     10809 MEMB     81       POPC     H4Y      HAL2     0.900000E-01   1.00800           0
     10810 MEMB     81       POPC     C35      CTL2    -0.180000       12.0110           0
     10811 MEMB     81       POPC     H5X      HAL2     0.900000E-01   1.00800           0
     10812 MEMB     81       POPC     H5Y      HAL2     0.900000E-01   1.00800           0
     10813 MEMB     81       POPC     C36      CTL2    -0.180000       12.0110           0
     10814 MEMB     81       POPC     H6X      HAL2     0.900000E-01   1.00800           0
     10815 MEMB     81       POPC     H6Y      HAL2     0.900000E-01   1.00800           0
     10816 MEMB     81       POPC     C37      CTL2    -0.180000       12.0110           0
     10817 MEMB     81       POPC     H7X      HAL2     0.900000E-01   1.00800           0
     10818 MEMB     81       POPC     H7Y      HAL2     0.900000E-01   1.00800           0
     10819 MEMB     81       POPC     C38      CTL2    -0.180000       12.0110           0
     10820 MEMB     81       POPC     H8X      HAL2     0.900000E-01   1.00800           0
     10821 MEMB     81       POPC     H8Y      HAL2     0.900000E-01   1.00800           0
     10822 MEMB     81       POPC     C39      CTL2    -0.180000       12.0110           0
     10823 MEMB     81       POPC     H9X      HAL2     0.900000E-01   1.00800           0
     10824 MEMB     81       POPC     H9Y      HAL2     0.900000E-01   1.00800           0
     10825 MEMB     81       POPC     C310     CTL2    -0.180000       12.0110           0
     10826 MEMB     81       POPC     H10X     HAL2     0.900000E-01   1.00800           0
     10827 MEMB     81       POPC     H10Y     HAL2     0.900000E-01   1.00800           0
     10828 MEMB     81       POPC     C311     CTL2    -0.180000       12.0110           0
     10829 MEMB     81       POPC     H11X     HAL2     0.900000E-01   1.00800           0
     10830 MEMB     81       POPC     H11Y     HAL2     0.900000E-01   1.00800           0
     10831 MEMB     81       POPC     C312     CTL2    -0.180000       12.0110           0
     10832 MEMB     81       POPC     H12X     HAL2     0.900000E-01   1.00800           0
     10833 MEMB     81       POPC     H12Y     HAL2     0.900000E-01   1.00800           0
     10834 MEMB     81       POPC     C313     CTL2    -0.180000       12.0110           0
     10835 MEMB     81       POPC     H13X     HAL2     0.900000E-01   1.00800           0
     10836 MEMB     81       POPC     H13Y     HAL2     0.900000E-01   1.00800           0
     10837 MEMB     81       POPC     C314     CTL2    -0.180000       12.0110           0
     10838 MEMB     81       POPC     H14X     HAL2     0.900000E-01   1.00800           0
     10839 MEMB     81       POPC     H14Y     HAL2     0.900000E-01   1.00800           0
     10840 MEMB     81       POPC     C315     CTL2    -0.180000       12.0110           0
     10841 MEMB     81       POPC     H15X     HAL2     0.900000E-01   1.00800           0
     10842 MEMB     81       POPC     H15Y     HAL2     0.900000E-01   1.00800           0
     10843 MEMB     81       POPC     C316     CTL3    -0.270000       12.0110           0
     10844 MEMB     81       POPC     H16X     HAL3     0.900000E-01   1.00800           0
     10845 MEMB     81       POPC     H16Y     HAL3     0.900000E-01   1.00800           0
     10846 MEMB     81       POPC     H16Z     HAL3     0.900000E-01   1.00800           0
     10847 MEMB     82       POPC     N        NTL     -0.600000       14.0070           0
     10848 MEMB     82       POPC     C12      CTL2    -0.100000       12.0110           0
     10849 MEMB     82       POPC     H12A     HL       0.250000       1.00800           0
     10850 MEMB     82       POPC     H12B     HL       0.250000       1.00800           0
     10851 MEMB     82       POPC     C13      CTL5    -0.350000       12.0110           0
     10852 MEMB     82       POPC     H13A     HL       0.250000       1.00800           0
     10853 MEMB     82       POPC     H13B     HL       0.250000       1.00800           0
     10854 MEMB     82       POPC     H13C     HL       0.250000       1.00800           0
     10855 MEMB     82       POPC     C14      CTL5    -0.350000       12.0110           0
     10856 MEMB     82       POPC     H14A     HL       0.250000       1.00800           0
     10857 MEMB     82       POPC     H14B     HL       0.250000       1.00800           0
     10858 MEMB     82       POPC     H14C     HL       0.250000       1.00800           0
     10859 MEMB     82       POPC     C15      CTL5    -0.350000       12.0110           0
     10860 MEMB     82       POPC     H15A     HL       0.250000       1.00800           0
     10861 MEMB     82       POPC     H15B     HL       0.250000       1.00800           0
     10862 MEMB     82       POPC     H15C     HL       0.250000       1.00800           0
     10863 MEMB     82       POPC     C11      CTL2    -0.800000E-01   12.0110           0
     10864 MEMB     82       POPC     H11A     HAL2     0.900000E-01   1.00800           0
     10865 MEMB     82       POPC     H11B     HAL2     0.900000E-01   1.00800           0
     10866 MEMB     82       POPC     P        PL        1.50000       30.9740           0
     10867 MEMB     82       POPC     O13      O2L     -0.780000       15.9994           0
     10868 MEMB     82       POPC     O14      O2L     -0.780000       15.9994           0
     10869 MEMB     82       POPC     O12      OSLP    -0.570000       15.9994           0
     10870 MEMB     82       POPC     O11      OSLP    -0.570000       15.9994           0
     10871 MEMB     82       POPC     C1       CTL2    -0.800000E-01   12.0110           0
     10872 MEMB     82       POPC     HA       HAL2     0.900000E-01   1.00800           0
     10873 MEMB     82       POPC     HB       HAL2     0.900000E-01   1.00800           0
     10874 MEMB     82       POPC     C2       CTL1     0.170000       12.0110           0
     10875 MEMB     82       POPC     HS       HAL1     0.900000E-01   1.00800           0
     10876 MEMB     82       POPC     O21      OSL     -0.490000       15.9994           0
     10877 MEMB     82       POPC     C21      CL       0.900000       12.0110           0
     10878 MEMB     82       POPC     O22      OBL     -0.630000       15.9994           0
     10879 MEMB     82       POPC     C22      CTL2    -0.220000       12.0110           0
     10880 MEMB     82       POPC     H2R      HAL2     0.900000E-01   1.00800           0
     10881 MEMB     82       POPC     H2S      HAL2     0.900000E-01   1.00800           0
     10882 MEMB     82       POPC     C3       CTL2     0.800000E-01   12.0110           0
     10883 MEMB     82       POPC     HX       HAL2     0.900000E-01   1.00800           0
     10884 MEMB     82       POPC     HY       HAL2     0.900000E-01   1.00800           0
     10885 MEMB     82       POPC     O31      OSL     -0.490000       15.9994           0
     10886 MEMB     82       POPC     C31      CL       0.900000       12.0110           0
     10887 MEMB     82       POPC     O32      OBL     -0.630000       15.9994           0
     10888 MEMB     82       POPC     C32      CTL2    -0.220000       12.0110           0
     10889 MEMB     82       POPC     H2X      HAL2     0.900000E-01   1.00800           0
     10890 MEMB     82       POPC     H2Y      HAL2     0.900000E-01   1.00800           0
     10891 MEMB     82       POPC     C23      CTL2    -0.180000       12.0110           0
     10892 MEMB     82       POPC     H3R      HAL2     0.900000E-01   1.00800           0
     10893 MEMB     82       POPC     H3S      HAL2     0.900000E-01   1.00800           0
     10894 MEMB     82       POPC     C24      CTL2    -0.180000       12.0110           0
     10895 MEMB     82       POPC     H4R      HAL2     0.900000E-01   1.00800           0
     10896 MEMB     82       POPC     H4S      HAL2     0.900000E-01   1.00800           0
     10897 MEMB     82       POPC     C25      CTL2    -0.180000       12.0110           0
     10898 MEMB     82       POPC     H5R      HAL2     0.900000E-01   1.00800           0
     10899 MEMB     82       POPC     H5S      HAL2     0.900000E-01   1.00800           0
     10900 MEMB     82       POPC     C26      CTL2    -0.180000       12.0110           0
     10901 MEMB     82       POPC     H6R      HAL2     0.900000E-01   1.00800           0
     10902 MEMB     82       POPC     H6S      HAL2     0.900000E-01   1.00800           0
     10903 MEMB     82       POPC     C27      CTL2    -0.180000       12.0110           0
     10904 MEMB     82       POPC     H7R      HAL2     0.900000E-01   1.00800           0
     10905 MEMB     82       POPC     H7S      HAL2     0.900000E-01   1.00800           0
     10906 MEMB     82       POPC     C28      CTL2    -0.180000       12.0110           0
     10907 MEMB     82       POPC     H8R      HAL2     0.900000E-01   1.00800           0
     10908 MEMB     82       POPC     H8S      HAL2     0.900000E-01   1.00800           0
     10909 MEMB     82       POPC     C29      CEL1    -0.150000       12.0110           0
     10910 MEMB     82       POPC     H91      HEL1     0.150000       1.00800           0
     10911 MEMB     82       POPC     C210     CEL1    -0.150000       12.0110           0
     10912 MEMB     82       POPC     H101     HEL1     0.150000       1.00800           0
     10913 MEMB     82       POPC     C211     CTL2    -0.180000       12.0110           0
     10914 MEMB     82       POPC     H11R     HAL2     0.900000E-01   1.00800           0
     10915 MEMB     82       POPC     H11S     HAL2     0.900000E-01   1.00800           0
     10916 MEMB     82       POPC     C212     CTL2    -0.180000       12.0110           0
     10917 MEMB     82       POPC     H12R     HAL2     0.900000E-01   1.00800           0
     10918 MEMB     82       POPC     H12S     HAL2     0.900000E-01   1.00800           0
     10919 MEMB     82       POPC     C213     CTL2    -0.180000       12.0110           0
     10920 MEMB     82       POPC     H13R     HAL2     0.900000E-01   1.00800           0
     10921 MEMB     82       POPC     H13S     HAL2     0.900000E-01   1.00800           0
     10922 MEMB     82       POPC     C214     CTL2    -0.180000       12.0110           0
     10923 MEMB     82       POPC     H14R     HAL2     0.900000E-01   1.00800           0
     10924 MEMB     82       POPC     H14S     HAL2     0.900000E-01   1.00800           0
     10925 MEMB     82       POPC     C215     CTL2    -0.180000       12.0110           0
     10926 MEMB     82       POPC     H15R     HAL2     0.900000E-01   1.00800           0
     10927 MEMB     82       POPC     H15S     HAL2     0.900000E-01   1.00800           0
     10928 MEMB     82       POPC     C216     CTL2    -0.180000       12.0110           0
     10929 MEMB     82       POPC     H16R     HAL2     0.900000E-01   1.00800           0
     10930 MEMB     82       POPC     H16S     HAL2     0.900000E-01   1.00800           0
     10931 MEMB     82       POPC     C217     CTL2    -0.180000       12.0110           0
     10932 MEMB     82       POPC     H17R     HAL2     0.900000E-01   1.00800           0
     10933 MEMB     82       POPC     H17S     HAL2     0.900000E-01   1.00800           0
     10934 MEMB     82       POPC     C218     CTL3    -0.270000       12.0110           0
     10935 MEMB     82       POPC     H18R     HAL3     0.900000E-01   1.00800           0
     10936 MEMB     82       POPC     H18S     HAL3     0.900000E-01   1.00800           0
     10937 MEMB     82       POPC     H18T     HAL3     0.900000E-01   1.00800           0
     10938 MEMB     82       POPC     C33      CTL2    -0.180000       12.0110           0
     10939 MEMB     82       POPC     H3X      HAL2     0.900000E-01   1.00800           0
     10940 MEMB     82       POPC     H3Y      HAL2     0.900000E-01   1.00800           0
     10941 MEMB     82       POPC     C34      CTL2    -0.180000       12.0110           0
     10942 MEMB     82       POPC     H4X      HAL2     0.900000E-01   1.00800           0
     10943 MEMB     82       POPC     H4Y      HAL2     0.900000E-01   1.00800           0
     10944 MEMB     82       POPC     C35      CTL2    -0.180000       12.0110           0
     10945 MEMB     82       POPC     H5X      HAL2     0.900000E-01   1.00800           0
     10946 MEMB     82       POPC     H5Y      HAL2     0.900000E-01   1.00800           0
     10947 MEMB     82       POPC     C36      CTL2    -0.180000       12.0110           0
     10948 MEMB     82       POPC     H6X      HAL2     0.900000E-01   1.00800           0
     10949 MEMB     82       POPC     H6Y      HAL2     0.900000E-01   1.00800           0
     10950 MEMB     82       POPC     C37      CTL2    -0.180000       12.0110           0
     10951 MEMB     82       POPC     H7X      HAL2     0.900000E-01   1.00800           0
     10952 MEMB     82       POPC     H7Y      HAL2     0.900000E-01   1.00800           0
     10953 MEMB     82       POPC     C38      CTL2    -0.180000       12.0110           0
     10954 MEMB     82       POPC     H8X      HAL2     0.900000E-01   1.00800           0
     10955 MEMB     82       POPC     H8Y      HAL2     0.900000E-01   1.00800           0
     10956 MEMB     82       POPC     C39      CTL2    -0.180000       12.0110           0
     10957 MEMB     82       POPC     H9X      HAL2     0.900000E-01   1.00800           0
     10958 MEMB     82       POPC     H9Y      HAL2     0.900000E-01   1.00800           0
     10959 MEMB     82       POPC     C310     CTL2    -0.180000       12.0110           0
     10960 MEMB     82       POPC     H10X     HAL2     0.900000E-01   1.00800           0
     10961 MEMB     82       POPC     H10Y     HAL2     0.900000E-01   1.00800           0
     10962 MEMB     82       POPC     C311     CTL2    -0.180000       12.0110           0
     10963 MEMB     82       POPC     H11X     HAL2     0.900000E-01   1.00800           0
     10964 MEMB     82       POPC     H11Y     HAL2     0.900000E-01   1.00800           0
     10965 MEMB     82       POPC     C312     CTL2    -0.180000       12.0110           0
     10966 MEMB     82       POPC     H12X     HAL2     0.900000E-01   1.00800           0
     10967 MEMB     82       POPC     H12Y     HAL2     0.900000E-01   1.00800           0
     10968 MEMB     82       POPC     C313     CTL2    -0.180000       12.0110           0
     10969 MEMB     82       POPC     H13X     HAL2     0.900000E-01   1.00800           0
     10970 MEMB     82       POPC     H13Y     HAL2     0.900000E-01   1.00800           0
     10971 MEMB     82       POPC     C314     CTL2    -0.180000       12.0110           0
     10972 MEMB     82       POPC     H14X     HAL2     0.900000E-01   1.00800           0
     10973 MEMB     82       POPC     H14Y     HAL2     0.900000E-01   1.00800           0
     10974 MEMB     82       POPC     C315     CTL2    -0.180000       12.0110           0
     10975 MEMB     82       POPC     H15X     HAL2     0.900000E-01   1.00800           0
     10976 MEMB     82       POPC     H15Y     HAL2     0.900000E-01   1.00800           0
     10977 MEMB     82       POPC     C316     CTL3    -0.270000       12.0110           0
     10978 MEMB     82       POPC     H16X     HAL3     0.900000E-01   1.00800           0
     10979 MEMB     82       POPC     H16Y     HAL3     0.900000E-01   1.00800           0
     10980 MEMB     82       POPC     H16Z     HAL3     0.900000E-01   1.00800           0
     10981 MEMB     83       POPC     N        NTL     -0.600000       14.0070           0
     10982 MEMB     83       POPC     C12      CTL2    -0.100000       12.0110           0
     10983 MEMB     83       POPC     H12A     HL       0.250000       1.00800           0
     10984 MEMB     83       POPC     H12B     HL       0.250000       1.00800           0
     10985 MEMB     83       POPC     C13      CTL5    -0.350000       12.0110           0
     10986 MEMB     83       POPC     H13A     HL       0.250000       1.00800           0
     10987 MEMB     83       POPC     H13B     HL       0.250000       1.00800           0
     10988 MEMB     83       POPC     H13C     HL       0.250000       1.00800           0
     10989 MEMB     83       POPC     C14      CTL5    -0.350000       12.0110           0
     10990 MEMB     83       POPC     H14A     HL       0.250000       1.00800           0
     10991 MEMB     83       POPC     H14B     HL       0.250000       1.00800           0
     10992 MEMB     83       POPC     H14C     HL       0.250000       1.00800           0
     10993 MEMB     83       POPC     C15      CTL5    -0.350000       12.0110           0
     10994 MEMB     83       POPC     H15A     HL       0.250000       1.00800           0
     10995 MEMB     83       POPC     H15B     HL       0.250000       1.00800           0
     10996 MEMB     83       POPC     H15C     HL       0.250000       1.00800           0
     10997 MEMB     83       POPC     C11      CTL2    -0.800000E-01   12.0110           0
     10998 MEMB     83       POPC     H11A     HAL2     0.900000E-01   1.00800           0
     10999 MEMB     83       POPC     H11B     HAL2     0.900000E-01   1.00800           0
     11000 MEMB     83       POPC     P        PL        1.50000       30.9740           0
     11001 MEMB     83       POPC     O13      O2L     -0.780000       15.9994           0
     11002 MEMB     83       POPC     O14      O2L     -0.780000       15.9994           0
     11003 MEMB     83       POPC     O12      OSLP    -0.570000       15.9994           0
     11004 MEMB     83       POPC     O11      OSLP    -0.570000       15.9994           0
     11005 MEMB     83       POPC     C1       CTL2    -0.800000E-01   12.0110           0
     11006 MEMB     83       POPC     HA       HAL2     0.900000E-01   1.00800           0
     11007 MEMB     83       POPC     HB       HAL2     0.900000E-01   1.00800           0
     11008 MEMB     83       POPC     C2       CTL1     0.170000       12.0110           0
     11009 MEMB     83       POPC     HS       HAL1     0.900000E-01   1.00800           0
     11010 MEMB     83       POPC     O21      OSL     -0.490000       15.9994           0
     11011 MEMB     83       POPC     C21      CL       0.900000       12.0110           0
     11012 MEMB     83       POPC     O22      OBL     -0.630000       15.9994           0
     11013 MEMB     83       POPC     C22      CTL2    -0.220000       12.0110           0
     11014 MEMB     83       POPC     H2R      HAL2     0.900000E-01   1.00800           0
     11015 MEMB     83       POPC     H2S      HAL2     0.900000E-01   1.00800           0
     11016 MEMB     83       POPC     C3       CTL2     0.800000E-01   12.0110           0
     11017 MEMB     83       POPC     HX       HAL2     0.900000E-01   1.00800           0
     11018 MEMB     83       POPC     HY       HAL2     0.900000E-01   1.00800           0
     11019 MEMB     83       POPC     O31      OSL     -0.490000       15.9994           0
     11020 MEMB     83       POPC     C31      CL       0.900000       12.0110           0
     11021 MEMB     83       POPC     O32      OBL     -0.630000       15.9994           0
     11022 MEMB     83       POPC     C32      CTL2    -0.220000       12.0110           0
     11023 MEMB     83       POPC     H2X      HAL2     0.900000E-01   1.00800           0
     11024 MEMB     83       POPC     H2Y      HAL2     0.900000E-01   1.00800           0
     11025 MEMB     83       POPC     C23      CTL2    -0.180000       12.0110           0
     11026 MEMB     83       POPC     H3R      HAL2     0.900000E-01   1.00800           0
     11027 MEMB     83       POPC     H3S      HAL2     0.900000E-01   1.00800           0
     11028 MEMB     83       POPC     C24      CTL2    -0.180000       12.0110           0
     11029 MEMB     83       POPC     H4R      HAL2     0.900000E-01   1.00800           0
     11030 MEMB     83       POPC     H4S      HAL2     0.900000E-01   1.00800           0
     11031 MEMB     83       POPC     C25      CTL2    -0.180000       12.0110           0
     11032 MEMB     83       POPC     H5R      HAL2     0.900000E-01   1.00800           0
     11033 MEMB     83       POPC     H5S      HAL2     0.900000E-01   1.00800           0
     11034 MEMB     83       POPC     C26      CTL2    -0.180000       12.0110           0
     11035 MEMB     83       POPC     H6R      HAL2     0.900000E-01   1.00800           0
     11036 MEMB     83       POPC     H6S      HAL2     0.900000E-01   1.00800           0
     11037 MEMB     83       POPC     C27      CTL2    -0.180000       12.0110           0
     11038 MEMB     83       POPC     H7R      HAL2     0.900000E-01   1.00800           0
     11039 MEMB     83       POPC     H7S      HAL2     0.900000E-01   1.00800           0
     11040 MEMB     83       POPC     C28      CTL2    -0.180000       12.0110           0
     11041 MEMB     83       POPC     H8R      HAL2     0.900000E-01   1.00800           0
     11042 MEMB     83       POPC     H8S      HAL2     0.900000E-01   1.00800           0
     11043 MEMB     83       POPC     C29      CEL1    -0.150000       12.0110           0
     11044 MEMB     83       POPC     H91      HEL1     0.150000       1.00800           0
     11045 MEMB     83       POPC     C210     CEL1    -0.150000       12.0110           0
     11046 MEMB     83       POPC     H101     HEL1     0.150000       1.00800           0
     11047 MEMB     83       POPC     C211     CTL2    -0.180000       12.0110           0
     11048 MEMB     83       POPC     H11R     HAL2     0.900000E-01   1.00800           0
     11049 MEMB     83       POPC     H11S     HAL2     0.900000E-01   1.00800           0
     11050 MEMB     83       POPC     C212     CTL2    -0.180000       12.0110           0
     11051 MEMB     83       POPC     H12R     HAL2     0.900000E-01   1.00800           0
     11052 MEMB     83       POPC     H12S     HAL2     0.900000E-01   1.00800           0
     11053 MEMB     83       POPC     C213     CTL2    -0.180000       12.0110           0
     11054 MEMB     83       POPC     H13R     HAL2     0.900000E-01   1.00800           0
     11055 MEMB     83       POPC     H13S     HAL2     0.900000E-01   1.00800           0
     11056 MEMB     83       POPC     C214     CTL2    -0.180000       12.0110           0
     11057 MEMB     83       POPC     H14R     HAL2     0.900000E-01   1.00800           0
     11058 MEMB     83       POPC     H14S     HAL2     0.900000E-01   1.00800           0
     11059 MEMB     83       POPC     C215     CTL2    -0.180000       12.0110           0
     11060 MEMB     83       POPC     H15R     HAL2     0.900000E-01   1.00800           0
     11061 MEMB     83       POPC     H15S     HAL2     0.900000E-01   1.00800           0
     11062 MEMB     83       POPC     C216     CTL2    -0.180000       12.0110           0
     11063 MEMB     83       POPC     H16R     HAL2     0.900000E-01   1.00800           0
     11064 MEMB     83       POPC     H16S     HAL2     0.900000E-01   1.00800           0
     11065 MEMB     83       POPC     C217     CTL2    -0.180000       12.0110           0
     11066 MEMB     83       POPC     H17R     HAL2     0.900000E-01   1.00800           0
     11067 MEMB     83       POPC     H17S     HAL2     0.900000E-01   1.00800           0
     11068 MEMB     83       POPC     C218     CTL3    -0.270000       12.0110           0
     11069 MEMB     83       POPC     H18R     HAL3     0.900000E-01   1.00800           0
     11070 MEMB     83       POPC     H18S     HAL3     0.900000E-01   1.00800           0
     11071 MEMB     83       POPC     H18T     HAL3     0.900000E-01   1.00800           0
     11072 MEMB     83       POPC     C33      CTL2    -0.180000       12.0110           0
     11073 MEMB     83       POPC     H3X      HAL2     0.900000E-01   1.00800           0
     11074 MEMB     83       POPC     H3Y      HAL2     0.900000E-01   1.00800           0
     11075 MEMB     83       POPC     C34      CTL2    -0.180000       12.0110           0
     11076 MEMB     83       POPC     H4X      HAL2     0.900000E-01   1.00800           0
     11077 MEMB     83       POPC     H4Y      HAL2     0.900000E-01   1.00800           0
     11078 MEMB     83       POPC     C35      CTL2    -0.180000       12.0110           0
     11079 MEMB     83       POPC     H5X      HAL2     0.900000E-01   1.00800           0
     11080 MEMB     83       POPC     H5Y      HAL2     0.900000E-01   1.00800           0
     11081 MEMB     83       POPC     C36      CTL2    -0.180000       12.0110           0
     11082 MEMB     83       POPC     H6X      HAL2     0.900000E-01   1.00800           0
     11083 MEMB     83       POPC     H6Y      HAL2     0.900000E-01   1.00800           0
     11084 MEMB     83       POPC     C37      CTL2    -0.180000       12.0110           0
     11085 MEMB     83       POPC     H7X      HAL2     0.900000E-01   1.00800           0
     11086 MEMB     83       POPC     H7Y      HAL2     0.900000E-01   1.00800           0
     11087 MEMB     83       POPC     C38      CTL2    -0.180000       12.0110           0
     11088 MEMB     83       POPC     H8X      HAL2     0.900000E-01   1.00800           0
     11089 MEMB     83       POPC     H8Y      HAL2     0.900000E-01   1.00800           0
     11090 MEMB     83       POPC     C39      CTL2    -0.180000       12.0110           0
     11091 MEMB     83       POPC     H9X      HAL2     0.900000E-01   1.00800           0
     11092 MEMB     83       POPC     H9Y      HAL2     0.900000E-01   1.00800           0
     11093 MEMB     83       POPC     C310     CTL2    -0.180000       12.0110           0
     11094 MEMB     83       POPC     H10X     HAL2     0.900000E-01   1.00800           0
     11095 MEMB     83       POPC     H10Y     HAL2     0.900000E-01   1.00800           0
     11096 MEMB     83       POPC     C311     CTL2    -0.180000       12.0110           0
     11097 MEMB     83       POPC     H11X     HAL2     0.900000E-01   1.00800           0
     11098 MEMB     83       POPC     H11Y     HAL2     0.900000E-01   1.00800           0
     11099 MEMB     83       POPC     C312     CTL2    -0.180000       12.0110           0
     11100 MEMB     83       POPC     H12X     HAL2     0.900000E-01   1.00800           0
     11101 MEMB     83       POPC     H12Y     HAL2     0.900000E-01   1.00800           0
     11102 MEMB     83       POPC     C313     CTL2    -0.180000       12.0110           0
     11103 MEMB     83       POPC     H13X     HAL2     0.900000E-01   1.00800           0
     11104 MEMB     83       POPC     H13Y     HAL2     0.900000E-01   1.00800           0
     11105 MEMB     83       POPC     C314     CTL2    -0.180000       12.0110           0
     11106 MEMB     83       POPC     H14X     HAL2     0.900000E-01   1.00800           0
     11107 MEMB     83       POPC     H14Y     HAL2     0.900000E-01   1.00800           0
     11108 MEMB     83       POPC     C315     CTL2    -0.180000       12.0110           0
     11109 MEMB     83       POPC     H15X     HAL2     0.900000E-01   1.00800           0
     11110 MEMB     83       POPC     H15Y     HAL2     0.900000E-01   1.00800           0
     11111 MEMB     83       POPC     C316     CTL3    -0.270000       12.0110           0
     11112 MEMB     83       POPC     H16X     HAL3     0.900000E-01   1.00800           0
     11113 MEMB     83       POPC     H16Y     HAL3     0.900000E-01   1.00800           0
     11114 MEMB     83       POPC     H16Z     HAL3     0.900000E-01   1.00800           0
     11115 MEMB     84       POPC     N        NTL     -0.600000       14.0070           0
     11116 MEMB     84       POPC     C12      CTL2    -0.100000       12.0110           0
     11117 MEMB     84       POPC     H12A     HL       0.250000       1.00800           0
     11118 MEMB     84       POPC     H12B     HL       0.250000       1.00800           0
     11119 MEMB     84       POPC     C13      CTL5    -0.350000       12.0110           0
     11120 MEMB     84       POPC     H13A     HL       0.250000       1.00800           0
     11121 MEMB     84       POPC     H13B     HL       0.250000       1.00800           0
     11122 MEMB     84       POPC     H13C     HL       0.250000       1.00800           0
     11123 MEMB     84       POPC     C14      CTL5    -0.350000       12.0110           0
     11124 MEMB     84       POPC     H14A     HL       0.250000       1.00800           0
     11125 MEMB     84       POPC     H14B     HL       0.250000       1.00800           0
     11126 MEMB     84       POPC     H14C     HL       0.250000       1.00800           0
     11127 MEMB     84       POPC     C15      CTL5    -0.350000       12.0110           0
     11128 MEMB     84       POPC     H15A     HL       0.250000       1.00800           0
     11129 MEMB     84       POPC     H15B     HL       0.250000       1.00800           0
     11130 MEMB     84       POPC     H15C     HL       0.250000       1.00800           0
     11131 MEMB     84       POPC     C11      CTL2    -0.800000E-01   12.0110           0
     11132 MEMB     84       POPC     H11A     HAL2     0.900000E-01   1.00800           0
     11133 MEMB     84       POPC     H11B     HAL2     0.900000E-01   1.00800           0
     11134 MEMB     84       POPC     P        PL        1.50000       30.9740           0
     11135 MEMB     84       POPC     O13      O2L     -0.780000       15.9994           0
     11136 MEMB     84       POPC     O14      O2L     -0.780000       15.9994           0
     11137 MEMB     84       POPC     O12      OSLP    -0.570000       15.9994           0
     11138 MEMB     84       POPC     O11      OSLP    -0.570000       15.9994           0
     11139 MEMB     84       POPC     C1       CTL2    -0.800000E-01   12.0110           0
     11140 MEMB     84       POPC     HA       HAL2     0.900000E-01   1.00800           0
     11141 MEMB     84       POPC     HB       HAL2     0.900000E-01   1.00800           0
     11142 MEMB     84       POPC     C2       CTL1     0.170000       12.0110           0
     11143 MEMB     84       POPC     HS       HAL1     0.900000E-01   1.00800           0
     11144 MEMB     84       POPC     O21      OSL     -0.490000       15.9994           0
     11145 MEMB     84       POPC     C21      CL       0.900000       12.0110           0
     11146 MEMB     84       POPC     O22      OBL     -0.630000       15.9994           0
     11147 MEMB     84       POPC     C22      CTL2    -0.220000       12.0110           0
     11148 MEMB     84       POPC     H2R      HAL2     0.900000E-01   1.00800           0
     11149 MEMB     84       POPC     H2S      HAL2     0.900000E-01   1.00800           0
     11150 MEMB     84       POPC     C3       CTL2     0.800000E-01   12.0110           0
     11151 MEMB     84       POPC     HX       HAL2     0.900000E-01   1.00800           0
     11152 MEMB     84       POPC     HY       HAL2     0.900000E-01   1.00800           0
     11153 MEMB     84       POPC     O31      OSL     -0.490000       15.9994           0
     11154 MEMB     84       POPC     C31      CL       0.900000       12.0110           0
     11155 MEMB     84       POPC     O32      OBL     -0.630000       15.9994           0
     11156 MEMB     84       POPC     C32      CTL2    -0.220000       12.0110           0
     11157 MEMB     84       POPC     H2X      HAL2     0.900000E-01   1.00800           0
     11158 MEMB     84       POPC     H2Y      HAL2     0.900000E-01   1.00800           0
     11159 MEMB     84       POPC     C23      CTL2    -0.180000       12.0110           0
     11160 MEMB     84       POPC     H3R      HAL2     0.900000E-01   1.00800           0
     11161 MEMB     84       POPC     H3S      HAL2     0.900000E-01   1.00800           0
     11162 MEMB     84       POPC     C24      CTL2    -0.180000       12.0110           0
     11163 MEMB     84       POPC     H4R      HAL2     0.900000E-01   1.00800           0
     11164 MEMB     84       POPC     H4S      HAL2     0.900000E-01   1.00800           0
     11165 MEMB     84       POPC     C25      CTL2    -0.180000       12.0110           0
     11166 MEMB     84       POPC     H5R      HAL2     0.900000E-01   1.00800           0
     11167 MEMB     84       POPC     H5S      HAL2     0.900000E-01   1.00800           0
     11168 MEMB     84       POPC     C26      CTL2    -0.180000       12.0110           0
     11169 MEMB     84       POPC     H6R      HAL2     0.900000E-01   1.00800           0
     11170 MEMB     84       POPC     H6S      HAL2     0.900000E-01   1.00800           0
     11171 MEMB     84       POPC     C27      CTL2    -0.180000       12.0110           0
     11172 MEMB     84       POPC     H7R      HAL2     0.900000E-01   1.00800           0
     11173 MEMB     84       POPC     H7S      HAL2     0.900000E-01   1.00800           0
     11174 MEMB     84       POPC     C28      CTL2    -0.180000       12.0110           0
     11175 MEMB     84       POPC     H8R      HAL2     0.900000E-01   1.00800           0
     11176 MEMB     84       POPC     H8S      HAL2     0.900000E-01   1.00800           0
     11177 MEMB     84       POPC     C29      CEL1    -0.150000       12.0110           0
     11178 MEMB     84       POPC     H91      HEL1     0.150000       1.00800           0
     11179 MEMB     84       POPC     C210     CEL1    -0.150000       12.0110           0
     11180 MEMB     84       POPC     H101     HEL1     0.150000       1.00800           0
     11181 MEMB     84       POPC     C211     CTL2    -0.180000       12.0110           0
     11182 MEMB     84       POPC     H11R     HAL2     0.900000E-01   1.00800           0
     11183 MEMB     84       POPC     H11S     HAL2     0.900000E-01   1.00800           0
     11184 MEMB     84       POPC     C212     CTL2    -0.180000       12.0110           0
     11185 MEMB     84       POPC     H12R     HAL2     0.900000E-01   1.00800           0
     11186 MEMB     84       POPC     H12S     HAL2     0.900000E-01   1.00800           0
     11187 MEMB     84       POPC     C213     CTL2    -0.180000       12.0110           0
     11188 MEMB     84       POPC     H13R     HAL2     0.900000E-01   1.00800           0
     11189 MEMB     84       POPC     H13S     HAL2     0.900000E-01   1.00800           0
     11190 MEMB     84       POPC     C214     CTL2    -0.180000       12.0110           0
     11191 MEMB     84       POPC     H14R     HAL2     0.900000E-01   1.00800           0
     11192 MEMB     84       POPC     H14S     HAL2     0.900000E-01   1.00800           0
     11193 MEMB     84       POPC     C215     CTL2    -0.180000       12.0110           0
     11194 MEMB     84       POPC     H15R     HAL2     0.900000E-01   1.00800           0
     11195 MEMB     84       POPC     H15S     HAL2     0.900000E-01   1.00800           0
     11196 MEMB     84       POPC     C216     CTL2    -0.180000       12.0110           0
     11197 MEMB     84       POPC     H16R     HAL2     0.900000E-01   1.00800           0
     11198 MEMB     84       POPC     H16S     HAL2     0.900000E-01   1.00800           0
     11199 MEMB     84       POPC     C217     CTL2    -0.180000       12.0110           0
     11200 MEMB     84       POPC     H17R     HAL2     0.900000E-01   1.00800           0
     11201 MEMB     84       POPC     H17S     HAL2     0.900000E-01   1.00800           0
     11202 MEMB     84       POPC     C218     CTL3    -0.270000       12.0110           0
     11203 MEMB     84       POPC     H18R     HAL3     0.900000E-01   1.00800           0
     11204 MEMB     84       POPC     H18S     HAL3     0.900000E-01   1.00800           0
     11205 MEMB     84       POPC     H18T     HAL3     0.900000E-01   1.00800           0
     11206 MEMB     84       POPC     C33      CTL2    -0.180000       12.0110           0
     11207 MEMB     84       POPC     H3X      HAL2     0.900000E-01   1.00800           0
     11208 MEMB     84       POPC     H3Y      HAL2     0.900000E-01   1.00800           0
     11209 MEMB     84       POPC     C34      CTL2    -0.180000       12.0110           0
     11210 MEMB     84       POPC     H4X      HAL2     0.900000E-01   1.00800           0
     11211 MEMB     84       POPC     H4Y      HAL2     0.900000E-01   1.00800           0
     11212 MEMB     84       POPC     C35      CTL2    -0.180000       12.0110           0
     11213 MEMB     84       POPC     H5X      HAL2     0.900000E-01   1.00800           0
     11214 MEMB     84       POPC     H5Y      HAL2     0.900000E-01   1.00800           0
     11215 MEMB     84       POPC     C36      CTL2    -0.180000       12.0110           0
     11216 MEMB     84       POPC     H6X      HAL2     0.900000E-01   1.00800           0
     11217 MEMB     84       POPC     H6Y      HAL2     0.900000E-01   1.00800           0
     11218 MEMB     84       POPC     C37      CTL2    -0.180000       12.0110           0
     11219 MEMB     84       POPC     H7X      HAL2     0.900000E-01   1.00800           0
     11220 MEMB     84       POPC     H7Y      HAL2     0.900000E-01   1.00800           0
     11221 MEMB     84       POPC     C38      CTL2    -0.180000       12.0110           0
     11222 MEMB     84       POPC     H8X      HAL2     0.900000E-01   1.00800           0
     11223 MEMB     84       POPC     H8Y      HAL2     0.900000E-01   1.00800           0
     11224 MEMB     84       POPC     C39      CTL2    -0.180000       12.0110           0
     11225 MEMB     84       POPC     H9X      HAL2     0.900000E-01   1.00800           0
     11226 MEMB     84       POPC     H9Y      HAL2     0.900000E-01   1.00800           0
     11227 MEMB     84       POPC     C310     CTL2    -0.180000       12.0110           0
     11228 MEMB     84       POPC     H10X     HAL2     0.900000E-01   1.00800           0
     11229 MEMB     84       POPC     H10Y     HAL2     0.900000E-01   1.00800           0
     11230 MEMB     84       POPC     C311     CTL2    -0.180000       12.0110           0
     11231 MEMB     84       POPC     H11X     HAL2     0.900000E-01   1.00800           0
     11232 MEMB     84       POPC     H11Y     HAL2     0.900000E-01   1.00800           0
     11233 MEMB     84       POPC     C312     CTL2    -0.180000       12.0110           0
     11234 MEMB     84       POPC     H12X     HAL2     0.900000E-01   1.00800           0
     11235 MEMB     84       POPC     H12Y     HAL2     0.900000E-01   1.00800           0
     11236 MEMB     84       POPC     C313     CTL2    -0.180000       12.0110           0
     11237 MEMB     84       POPC     H13X     HAL2     0.900000E-01   1.00800           0
     11238 MEMB     84       POPC     H13Y     HAL2     0.900000E-01   1.00800           0
     11239 MEMB     84       POPC     C314     CTL2    -0.180000       12.0110           0
     11240 MEMB     84       POPC     H14X     HAL2     0.900000E-01   1.00800           0
     11241 MEMB     84       POPC     H14Y     HAL2     0.900000E-01   1.00800           0
     11242 MEMB     84       POPC     C315     CTL2    -0.180000       12.0110           0
     11243 MEMB     84       POPC     H15X     HAL2     0.900000E-01   1.00800           0
     11244 MEMB     84       POPC     H15Y     HAL2     0.900000E-01   1.00800           0
     11245 MEMB     84       POPC     C316     CTL3    -0.270000       12.0110           0
     11246 MEMB     84       POPC     H16X     HAL3     0.900000E-01   1.00800           0
     11247 MEMB     84       POPC     H16Y     HAL3     0.900000E-01   1.00800           0
     11248 MEMB     84       POPC     H16Z     HAL3     0.900000E-01   1.00800           0
     11249 MEMB     85       POPC     N        NTL     -0.600000       14.0070           0
     11250 MEMB     85       POPC     C12      CTL2    -0.100000       12.0110           0
     11251 MEMB     85       POPC     H12A     HL       0.250000       1.00800           0
     11252 MEMB     85       POPC     H12B     HL       0.250000       1.00800           0
     11253 MEMB     85       POPC     C13      CTL5    -0.350000       12.0110           0
     11254 MEMB     85       POPC     H13A     HL       0.250000       1.00800           0
     11255 MEMB     85       POPC     H13B     HL       0.250000       1.00800           0
     11256 MEMB     85       POPC     H13C     HL       0.250000       1.00800           0
     11257 MEMB     85       POPC     C14      CTL5    -0.350000       12.0110           0
     11258 MEMB     85       POPC     H14A     HL       0.250000       1.00800           0
     11259 MEMB     85       POPC     H14B     HL       0.250000       1.00800           0
     11260 MEMB     85       POPC     H14C     HL       0.250000       1.00800           0
     11261 MEMB     85       POPC     C15      CTL5    -0.350000       12.0110           0
     11262 MEMB     85       POPC     H15A     HL       0.250000       1.00800           0
     11263 MEMB     85       POPC     H15B     HL       0.250000       1.00800           0
     11264 MEMB     85       POPC     H15C     HL       0.250000       1.00800           0
     11265 MEMB     85       POPC     C11      CTL2    -0.800000E-01   12.0110           0
     11266 MEMB     85       POPC     H11A     HAL2     0.900000E-01   1.00800           0
     11267 MEMB     85       POPC     H11B     HAL2     0.900000E-01   1.00800           0
     11268 MEMB     85       POPC     P        PL        1.50000       30.9740           0
     11269 MEMB     85       POPC     O13      O2L     -0.780000       15.9994           0
     11270 MEMB     85       POPC     O14      O2L     -0.780000       15.9994           0
     11271 MEMB     85       POPC     O12      OSLP    -0.570000       15.9994           0
     11272 MEMB     85       POPC     O11      OSLP    -0.570000       15.9994           0
     11273 MEMB     85       POPC     C1       CTL2    -0.800000E-01   12.0110           0
     11274 MEMB     85       POPC     HA       HAL2     0.900000E-01   1.00800           0
     11275 MEMB     85       POPC     HB       HAL2     0.900000E-01   1.00800           0
     11276 MEMB     85       POPC     C2       CTL1     0.170000       12.0110           0
     11277 MEMB     85       POPC     HS       HAL1     0.900000E-01   1.00800           0
     11278 MEMB     85       POPC     O21      OSL     -0.490000       15.9994           0
     11279 MEMB     85       POPC     C21      CL       0.900000       12.0110           0
     11280 MEMB     85       POPC     O22      OBL     -0.630000       15.9994           0
     11281 MEMB     85       POPC     C22      CTL2    -0.220000       12.0110           0
     11282 MEMB     85       POPC     H2R      HAL2     0.900000E-01   1.00800           0
     11283 MEMB     85       POPC     H2S      HAL2     0.900000E-01   1.00800           0
     11284 MEMB     85       POPC     C3       CTL2     0.800000E-01   12.0110           0
     11285 MEMB     85       POPC     HX       HAL2     0.900000E-01   1.00800           0
     11286 MEMB     85       POPC     HY       HAL2     0.900000E-01   1.00800           0
     11287 MEMB     85       POPC     O31      OSL     -0.490000       15.9994           0
     11288 MEMB     85       POPC     C31      CL       0.900000       12.0110           0
     11289 MEMB     85       POPC     O32      OBL     -0.630000       15.9994           0
     11290 MEMB     85       POPC     C32      CTL2    -0.220000       12.0110           0
     11291 MEMB     85       POPC     H2X      HAL2     0.900000E-01   1.00800           0
     11292 MEMB     85       POPC     H2Y      HAL2     0.900000E-01   1.00800           0
     11293 MEMB     85       POPC     C23      CTL2    -0.180000       12.0110           0
     11294 MEMB     85       POPC     H3R      HAL2     0.900000E-01   1.00800           0
     11295 MEMB     85       POPC     H3S      HAL2     0.900000E-01   1.00800           0
     11296 MEMB     85       POPC     C24      CTL2    -0.180000       12.0110           0
     11297 MEMB     85       POPC     H4R      HAL2     0.900000E-01   1.00800           0
     11298 MEMB     85       POPC     H4S      HAL2     0.900000E-01   1.00800           0
     11299 MEMB     85       POPC     C25      CTL2    -0.180000       12.0110           0
     11300 MEMB     85       POPC     H5R      HAL2     0.900000E-01   1.00800           0
     11301 MEMB     85       POPC     H5S      HAL2     0.900000E-01   1.00800           0
     11302 MEMB     85       POPC     C26      CTL2    -0.180000       12.0110           0
     11303 MEMB     85       POPC     H6R      HAL2     0.900000E-01   1.00800           0
     11304 MEMB     85       POPC     H6S      HAL2     0.900000E-01   1.00800           0
     11305 MEMB     85       POPC     C27      CTL2    -0.180000       12.0110           0
     11306 MEMB     85       POPC     H7R      HAL2     0.900000E-01   1.00800           0
     11307 MEMB     85       POPC     H7S      HAL2     0.900000E-01   1.00800           0
     11308 MEMB     85       POPC     C28      CTL2    -0.180000       12.0110           0
     11309 MEMB     85       POPC     H8R      HAL2     0.900000E-01   1.00800           0
     11310 MEMB     85       POPC     H8S      HAL2     0.900000E-01   1.00800           0
     11311 MEMB     85       POPC     C29      CEL1    -0.150000       12.0110           0
     11312 MEMB     85       POPC     H91      HEL1     0.150000       1.00800           0
     11313 MEMB     85       POPC     C210     CEL1    -0.150000       12.0110           0
     11314 MEMB     85       POPC     H101     HEL1     0.150000       1.00800           0
     11315 MEMB     85       POPC     C211     CTL2    -0.180000       12.0110           0
     11316 MEMB     85       POPC     H11R     HAL2     0.900000E-01   1.00800           0
     11317 MEMB     85       POPC     H11S     HAL2     0.900000E-01   1.00800           0
     11318 MEMB     85       POPC     C212     CTL2    -0.180000       12.0110           0
     11319 MEMB     85       POPC     H12R     HAL2     0.900000E-01   1.00800           0
     11320 MEMB     85       POPC     H12S     HAL2     0.900000E-01   1.00800           0
     11321 MEMB     85       POPC     C213     CTL2    -0.180000       12.0110           0
     11322 MEMB     85       POPC     H13R     HAL2     0.900000E-01   1.00800           0
     11323 MEMB     85       POPC     H13S     HAL2     0.900000E-01   1.00800           0
     11324 MEMB     85       POPC     C214     CTL2    -0.180000       12.0110           0
     11325 MEMB     85       POPC     H14R     HAL2     0.900000E-01   1.00800           0
     11326 MEMB     85       POPC     H14S     HAL2     0.900000E-01   1.00800           0
     11327 MEMB     85       POPC     C215     CTL2    -0.180000       12.0110           0
     11328 MEMB     85       POPC     H15R     HAL2     0.900000E-01   1.00800           0
     11329 MEMB     85       POPC     H15S     HAL2     0.900000E-01   1.00800           0
     11330 MEMB     85       POPC     C216     CTL2    -0.180000       12.0110           0
     11331 MEMB     85       POPC     H16R     HAL2     0.900000E-01   1.00800           0
     11332 MEMB     85       POPC     H16S     HAL2     0.900000E-01   1.00800           0
     11333 MEMB     85       POPC     C217     CTL2    -0.180000       12.0110           0
     11334 MEMB     85       POPC     H17R     HAL2     0.900000E-01   1.00800           0
     11335 MEMB     85       POPC     H17S     HAL2     0.900000E-01   1.00800           0
     11336 MEMB     85       POPC     C218     CTL3    -0.270000       12.0110           0
     11337 MEMB     85       POPC     H18R     HAL3     0.900000E-01   1.00800           0
     11338 MEMB     85       POPC     H18S     HAL3     0.900000E-01   1.00800           0
     11339 MEMB     85       POPC     H18T     HAL3     0.900000E-01   1.00800           0
     11340 MEMB     85       POPC     C33      CTL2    -0.180000       12.0110           0
     11341 MEMB     85       POPC     H3X      HAL2     0.900000E-01   1.00800           0
     11342 MEMB     85       POPC     H3Y      HAL2     0.900000E-01   1.00800           0
     11343 MEMB     85       POPC     C34      CTL2    -0.180000       12.0110           0
     11344 MEMB     85       POPC     H4X      HAL2     0.900000E-01   1.00800           0
     11345 MEMB     85       POPC     H4Y      HAL2     0.900000E-01   1.00800           0
     11346 MEMB     85       POPC     C35      CTL2    -0.180000       12.0110           0
     11347 MEMB     85       POPC     H5X      HAL2     0.900000E-01   1.00800           0
     11348 MEMB     85       POPC     H5Y      HAL2     0.900000E-01   1.00800           0
     11349 MEMB     85       POPC     C36      CTL2    -0.180000       12.0110           0
     11350 MEMB     85       POPC     H6X      HAL2     0.900000E-01   1.00800           0
     11351 MEMB     85       POPC     H6Y      HAL2     0.900000E-01   1.00800           0
     11352 MEMB     85       POPC     C37      CTL2    -0.180000       12.0110           0
     11353 MEMB     85       POPC     H7X      HAL2     0.900000E-01   1.00800           0
     11354 MEMB     85       POPC     H7Y      HAL2     0.900000E-01   1.00800           0
     11355 MEMB     85       POPC     C38      CTL2    -0.180000       12.0110           0
     11356 MEMB     85       POPC     H8X      HAL2     0.900000E-01   1.00800           0
     11357 MEMB     85       POPC     H8Y      HAL2     0.900000E-01   1.00800           0
     11358 MEMB     85       POPC     C39      CTL2    -0.180000       12.0110           0
     11359 MEMB     85       POPC     H9X      HAL2     0.900000E-01   1.00800           0
     11360 MEMB     85       POPC     H9Y      HAL2     0.900000E-01   1.00800           0
     11361 MEMB     85       POPC     C310     CTL2    -0.180000       12.0110           0
     11362 MEMB     85       POPC     H10X     HAL2     0.900000E-01   1.00800           0
     11363 MEMB     85       POPC     H10Y     HAL2     0.900000E-01   1.00800           0
     11364 MEMB     85       POPC     C311     CTL2    -0.180000       12.0110           0
     11365 MEMB     85       POPC     H11X     HAL2     0.900000E-01   1.00800           0
     11366 MEMB     85       POPC     H11Y     HAL2     0.900000E-01   1.00800           0
     11367 MEMB     85       POPC     C312     CTL2    -0.180000       12.0110           0
     11368 MEMB     85       POPC     H12X     HAL2     0.900000E-01   1.00800           0
     11369 MEMB     85       POPC     H12Y     HAL2     0.900000E-01   1.00800           0
     11370 MEMB     85       POPC     C313     CTL2    -0.180000       12.0110           0
     11371 MEMB     85       POPC     H13X     HAL2     0.900000E-01   1.00800           0
     11372 MEMB     85       POPC     H13Y     HAL2     0.900000E-01   1.00800           0
     11373 MEMB     85       POPC     C314     CTL2    -0.180000       12.0110           0
     11374 MEMB     85       POPC     H14X     HAL2     0.900000E-01   1.00800           0
     11375 MEMB     85       POPC     H14Y     HAL2     0.900000E-01   1.00800           0
     11376 MEMB     85       POPC     C315     CTL2    -0.180000       12.0110           0
     11377 MEMB     85       POPC     H15X     HAL2     0.900000E-01   1.00800           0
     11378 MEMB     85       POPC     H15Y     HAL2     0.900000E-01   1.00800           0
     11379 MEMB     85       POPC     C316     CTL3    -0.270000       12.0110           0
     11380 MEMB     85       POPC     H16X     HAL3     0.900000E-01   1.00800           0
     11381 MEMB     85       POPC     H16Y     HAL3     0.900000E-01   1.00800           0
     11382 MEMB     85       POPC     H16Z     HAL3     0.900000E-01   1.00800           0
     11383 MEMB     86       POPC     N        NTL     -0.600000       14.0070           0
     11384 MEMB     86       POPC     C12      CTL2    -0.100000       12.0110           0
     11385 MEMB     86       POPC     H12A     HL       0.250000       1.00800           0
     11386 MEMB     86       POPC     H12B     HL       0.250000       1.00800           0
     11387 MEMB     86       POPC     C13      CTL5    -0.350000       12.0110           0
     11388 MEMB     86       POPC     H13A     HL       0.250000       1.00800           0
     11389 MEMB     86       POPC     H13B     HL       0.250000       1.00800           0
     11390 MEMB     86       POPC     H13C     HL       0.250000       1.00800           0
     11391 MEMB     86       POPC     C14      CTL5    -0.350000       12.0110           0
     11392 MEMB     86       POPC     H14A     HL       0.250000       1.00800           0
     11393 MEMB     86       POPC     H14B     HL       0.250000       1.00800           0
     11394 MEMB     86       POPC     H14C     HL       0.250000       1.00800           0
     11395 MEMB     86       POPC     C15      CTL5    -0.350000       12.0110           0
     11396 MEMB     86       POPC     H15A     HL       0.250000       1.00800           0
     11397 MEMB     86       POPC     H15B     HL       0.250000       1.00800           0
     11398 MEMB     86       POPC     H15C     HL       0.250000       1.00800           0
     11399 MEMB     86       POPC     C11      CTL2    -0.800000E-01   12.0110           0
     11400 MEMB     86       POPC     H11A     HAL2     0.900000E-01   1.00800           0
     11401 MEMB     86       POPC     H11B     HAL2     0.900000E-01   1.00800           0
     11402 MEMB     86       POPC     P        PL        1.50000       30.9740           0
     11403 MEMB     86       POPC     O13      O2L     -0.780000       15.9994           0
     11404 MEMB     86       POPC     O14      O2L     -0.780000       15.9994           0
     11405 MEMB     86       POPC     O12      OSLP    -0.570000       15.9994           0
     11406 MEMB     86       POPC     O11      OSLP    -0.570000       15.9994           0
     11407 MEMB     86       POPC     C1       CTL2    -0.800000E-01   12.0110           0
     11408 MEMB     86       POPC     HA       HAL2     0.900000E-01   1.00800           0
     11409 MEMB     86       POPC     HB       HAL2     0.900000E-01   1.00800           0
     11410 MEMB     86       POPC     C2       CTL1     0.170000       12.0110           0
     11411 MEMB     86       POPC     HS       HAL1     0.900000E-01   1.00800           0
     11412 MEMB     86       POPC     O21      OSL     -0.490000       15.9994           0
     11413 MEMB     86       POPC     C21      CL       0.900000       12.0110           0
     11414 MEMB     86       POPC     O22      OBL     -0.630000       15.9994           0
     11415 MEMB     86       POPC     C22      CTL2    -0.220000       12.0110           0
     11416 MEMB     86       POPC     H2R      HAL2     0.900000E-01   1.00800           0
     11417 MEMB     86       POPC     H2S      HAL2     0.900000E-01   1.00800           0
     11418 MEMB     86       POPC     C3       CTL2     0.800000E-01   12.0110           0
     11419 MEMB     86       POPC     HX       HAL2     0.900000E-01   1.00800           0
     11420 MEMB     86       POPC     HY       HAL2     0.900000E-01   1.00800           0
     11421 MEMB     86       POPC     O31      OSL     -0.490000       15.9994           0
     11422 MEMB     86       POPC     C31      CL       0.900000       12.0110           0
     11423 MEMB     86       POPC     O32      OBL     -0.630000       15.9994           0
     11424 MEMB     86       POPC     C32      CTL2    -0.220000       12.0110           0
     11425 MEMB     86       POPC     H2X      HAL2     0.900000E-01   1.00800           0
     11426 MEMB     86       POPC     H2Y      HAL2     0.900000E-01   1.00800           0
     11427 MEMB     86       POPC     C23      CTL2    -0.180000       12.0110           0
     11428 MEMB     86       POPC     H3R      HAL2     0.900000E-01   1.00800           0
     11429 MEMB     86       POPC     H3S      HAL2     0.900000E-01   1.00800           0
     11430 MEMB     86       POPC     C24      CTL2    -0.180000       12.0110           0
     11431 MEMB     86       POPC     H4R      HAL2     0.900000E-01   1.00800           0
     11432 MEMB     86       POPC     H4S      HAL2     0.900000E-01   1.00800           0
     11433 MEMB     86       POPC     C25      CTL2    -0.180000       12.0110           0
     11434 MEMB     86       POPC     H5R      HAL2     0.900000E-01   1.00800           0
     11435 MEMB     86       POPC     H5S      HAL2     0.900000E-01   1.00800           0
     11436 MEMB     86       POPC     C26      CTL2    -0.180000       12.0110           0
     11437 MEMB     86       POPC     H6R      HAL2     0.900000E-01   1.00800           0
     11438 MEMB     86       POPC     H6S      HAL2     0.900000E-01   1.00800           0
     11439 MEMB     86       POPC     C27      CTL2    -0.180000       12.0110           0
     11440 MEMB     86       POPC     H7R      HAL2     0.900000E-01   1.00800           0
     11441 MEMB     86       POPC     H7S      HAL2     0.900000E-01   1.00800           0
     11442 MEMB     86       POPC     C28      CTL2    -0.180000       12.0110           0
     11443 MEMB     86       POPC     H8R      HAL2     0.900000E-01   1.00800           0
     11444 MEMB     86       POPC     H8S      HAL2     0.900000E-01   1.00800           0
     11445 MEMB     86       POPC     C29      CEL1    -0.150000       12.0110           0
     11446 MEMB     86       POPC     H91      HEL1     0.150000       1.00800           0
     11447 MEMB     86       POPC     C210     CEL1    -0.150000       12.0110           0
     11448 MEMB     86       POPC     H101     HEL1     0.150000       1.00800           0
     11449 MEMB     86       POPC     C211     CTL2    -0.180000       12.0110           0
     11450 MEMB     86       POPC     H11R     HAL2     0.900000E-01   1.00800           0
     11451 MEMB     86       POPC     H11S     HAL2     0.900000E-01   1.00800           0
     11452 MEMB     86       POPC     C212     CTL2    -0.180000       12.0110           0
     11453 MEMB     86       POPC     H12R     HAL2     0.900000E-01   1.00800           0
     11454 MEMB     86       POPC     H12S     HAL2     0.900000E-01   1.00800           0
     11455 MEMB     86       POPC     C213     CTL2    -0.180000       12.0110           0
     11456 MEMB     86       POPC     H13R     HAL2     0.900000E-01   1.00800           0
     11457 MEMB     86       POPC     H13S     HAL2     0.900000E-01   1.00800           0
     11458 MEMB     86       POPC     C214     CTL2    -0.180000       12.0110           0
     11459 MEMB     86       POPC     H14R     HAL2     0.900000E-01   1.00800           0
     11460 MEMB     86       POPC     H14S     HAL2     0.900000E-01   1.00800           0
     11461 MEMB     86       POPC     C215     CTL2    -0.180000       12.0110           0
     11462 MEMB     86       POPC     H15R     HAL2     0.900000E-01   1.00800           0
     11463 MEMB     86       POPC     H15S     HAL2     0.900000E-01   1.00800           0
     11464 MEMB     86       POPC     C216     CTL2    -0.180000       12.0110           0
     11465 MEMB     86       POPC     H16R     HAL2     0.900000E-01   1.00800           0
     11466 MEMB     86       POPC     H16S     HAL2     0.900000E-01   1.00800           0
     11467 MEMB     86       POPC     C217     CTL2    -0.180000       12.0110           0
     11468 MEMB     86       POPC     H17R     HAL2     0.900000E-01   1.00800           0
     11469 MEMB     86       POPC     H17S     HAL2     0.900000E-01   1.00800           0
     11470 MEMB     86       POPC     C218     CTL3    -0.270000       12.0110           0
     11471 MEMB     86       POPC     H18R     HAL3     0.900000E-01   1.00800           0
     11472 MEMB     86       POPC     H18S     HAL3     0.900000E-01   1.00800           0
     11473 MEMB     86       POPC     H18T     HAL3     0.900000E-01   1.00800           0
     11474 MEMB     86       POPC     C33      CTL2    -0.180000       12.0110           0
     11475 MEMB     86       POPC     H3X      HAL2     0.900000E-01   1.00800           0
     11476 MEMB     86       POPC     H3Y      HAL2     0.900000E-01   1.00800           0
     11477 MEMB     86       POPC     C34      CTL2    -0.180000       12.0110           0
     11478 MEMB     86       POPC     H4X      HAL2     0.900000E-01   1.00800           0
     11479 MEMB     86       POPC     H4Y      HAL2     0.900000E-01   1.00800           0
     11480 MEMB     86       POPC     C35      CTL2    -0.180000       12.0110           0
     11481 MEMB     86       POPC     H5X      HAL2     0.900000E-01   1.00800           0
     11482 MEMB     86       POPC     H5Y      HAL2     0.900000E-01   1.00800           0
     11483 MEMB     86       POPC     C36      CTL2    -0.180000       12.0110           0
     11484 MEMB     86       POPC     H6X      HAL2     0.900000E-01   1.00800           0
     11485 MEMB     86       POPC     H6Y      HAL2     0.900000E-01   1.00800           0
     11486 MEMB     86       POPC     C37      CTL2    -0.180000       12.0110           0
     11487 MEMB     86       POPC     H7X      HAL2     0.900000E-01   1.00800           0
     11488 MEMB     86       POPC     H7Y      HAL2     0.900000E-01   1.00800           0
     11489 MEMB     86       POPC     C38      CTL2    -0.180000       12.0110           0
     11490 MEMB     86       POPC     H8X      HAL2     0.900000E-01   1.00800           0
     11491 MEMB     86       POPC     H8Y      HAL2     0.900000E-01   1.00800           0
     11492 MEMB     86       POPC     C39      CTL2    -0.180000       12.0110           0
     11493 MEMB     86       POPC     H9X      HAL2     0.900000E-01   1.00800           0
     11494 MEMB     86       POPC     H9Y      HAL2     0.900000E-01   1.00800           0
     11495 MEMB     86       POPC     C310     CTL2    -0.180000       12.0110           0
     11496 MEMB     86       POPC     H10X     HAL2     0.900000E-01   1.00800           0
     11497 MEMB     86       POPC     H10Y     HAL2     0.900000E-01   1.00800           0
     11498 MEMB     86       POPC     C311     CTL2    -0.180000       12.0110           0
     11499 MEMB     86       POPC     H11X     HAL2     0.900000E-01   1.00800           0
     11500 MEMB     86       POPC     H11Y     HAL2     0.900000E-01   1.00800           0
     11501 MEMB     86       POPC     C312     CTL2    -0.180000       12.0110           0
     11502 MEMB     86       POPC     H12X     HAL2     0.900000E-01   1.00800           0
     11503 MEMB     86       POPC     H12Y     HAL2     0.900000E-01   1.00800           0
     11504 MEMB     86       POPC     C313     CTL2    -0.180000       12.0110           0
     11505 MEMB     86       POPC     H13X     HAL2     0.900000E-01   1.00800           0
     11506 MEMB     86       POPC     H13Y     HAL2     0.900000E-01   1.00800           0
     11507 MEMB     86       POPC     C314     CTL2    -0.180000       12.0110           0
     11508 MEMB     86       POPC     H14X     HAL2     0.900000E-01   1.00800           0
     11509 MEMB     86       POPC     H14Y     HAL2     0.900000E-01   1.00800           0
     11510 MEMB     86       POPC     C315     CTL2    -0.180000       12.0110           0
     11511 MEMB     86       POPC     H15X     HAL2     0.900000E-01   1.00800           0
     11512 MEMB     86       POPC     H15Y     HAL2     0.900000E-01   1.00800           0
     11513 MEMB     86       POPC     C316     CTL3    -0.270000       12.0110           0
     11514 MEMB     86       POPC     H16X     HAL3     0.900000E-01   1.00800           0
     11515 MEMB     86       POPC     H16Y     HAL3     0.900000E-01   1.00800           0
     11516 MEMB     86       POPC     H16Z     HAL3     0.900000E-01   1.00800           0
     11517 MEMB     87       POPC     N        NTL     -0.600000       14.0070           0
     11518 MEMB     87       POPC     C12      CTL2    -0.100000       12.0110           0
     11519 MEMB     87       POPC     H12A     HL       0.250000       1.00800           0
     11520 MEMB     87       POPC     H12B     HL       0.250000       1.00800           0
     11521 MEMB     87       POPC     C13      CTL5    -0.350000       12.0110           0
     11522 MEMB     87       POPC     H13A     HL       0.250000       1.00800           0
     11523 MEMB     87       POPC     H13B     HL       0.250000       1.00800           0
     11524 MEMB     87       POPC     H13C     HL       0.250000       1.00800           0
     11525 MEMB     87       POPC     C14      CTL5    -0.350000       12.0110           0
     11526 MEMB     87       POPC     H14A     HL       0.250000       1.00800           0
     11527 MEMB     87       POPC     H14B     HL       0.250000       1.00800           0
     11528 MEMB     87       POPC     H14C     HL       0.250000       1.00800           0
     11529 MEMB     87       POPC     C15      CTL5    -0.350000       12.0110           0
     11530 MEMB     87       POPC     H15A     HL       0.250000       1.00800           0
     11531 MEMB     87       POPC     H15B     HL       0.250000       1.00800           0
     11532 MEMB     87       POPC     H15C     HL       0.250000       1.00800           0
     11533 MEMB     87       POPC     C11      CTL2    -0.800000E-01   12.0110           0
     11534 MEMB     87       POPC     H11A     HAL2     0.900000E-01   1.00800           0
     11535 MEMB     87       POPC     H11B     HAL2     0.900000E-01   1.00800           0
     11536 MEMB     87       POPC     P        PL        1.50000       30.9740           0
     11537 MEMB     87       POPC     O13      O2L     -0.780000       15.9994           0
     11538 MEMB     87       POPC     O14      O2L     -0.780000       15.9994           0
     11539 MEMB     87       POPC     O12      OSLP    -0.570000       15.9994           0
     11540 MEMB     87       POPC     O11      OSLP    -0.570000       15.9994           0
     11541 MEMB     87       POPC     C1       CTL2    -0.800000E-01   12.0110           0
     11542 MEMB     87       POPC     HA       HAL2     0.900000E-01   1.00800           0
     11543 MEMB     87       POPC     HB       HAL2     0.900000E-01   1.00800           0
     11544 MEMB     87       POPC     C2       CTL1     0.170000       12.0110           0
     11545 MEMB     87       POPC     HS       HAL1     0.900000E-01   1.00800           0
     11546 MEMB     87       POPC     O21      OSL     -0.490000       15.9994           0
     11547 MEMB     87       POPC     C21      CL       0.900000       12.0110           0
     11548 MEMB     87       POPC     O22      OBL     -0.630000       15.9994           0
     11549 MEMB     87       POPC     C22      CTL2    -0.220000       12.0110           0
     11550 MEMB     87       POPC     H2R      HAL2     0.900000E-01   1.00800           0
     11551 MEMB     87       POPC     H2S      HAL2     0.900000E-01   1.00800           0
     11552 MEMB     87       POPC     C3       CTL2     0.800000E-01   12.0110           0
     11553 MEMB     87       POPC     HX       HAL2     0.900000E-01   1.00800           0
     11554 MEMB     87       POPC     HY       HAL2     0.900000E-01   1.00800           0
     11555 MEMB     87       POPC     O31      OSL     -0.490000       15.9994           0
     11556 MEMB     87       POPC     C31      CL       0.900000       12.0110           0
     11557 MEMB     87       POPC     O32      OBL     -0.630000       15.9994           0
     11558 MEMB     87       POPC     C32      CTL2    -0.220000       12.0110           0
     11559 MEMB     87       POPC     H2X      HAL2     0.900000E-01   1.00800           0
     11560 MEMB     87       POPC     H2Y      HAL2     0.900000E-01   1.00800           0
     11561 MEMB     87       POPC     C23      CTL2    -0.180000       12.0110           0
     11562 MEMB     87       POPC     H3R      HAL2     0.900000E-01   1.00800           0
     11563 MEMB     87       POPC     H3S      HAL2     0.900000E-01   1.00800           0
     11564 MEMB     87       POPC     C24      CTL2    -0.180000       12.0110           0
     11565 MEMB     87       POPC     H4R      HAL2     0.900000E-01   1.00800           0
     11566 MEMB     87       POPC     H4S      HAL2     0.900000E-01   1.00800           0
     11567 MEMB     87       POPC     C25      CTL2    -0.180000       12.0110           0
     11568 MEMB     87       POPC     H5R      HAL2     0.900000E-01   1.00800           0
     11569 MEMB     87       POPC     H5S      HAL2     0.900000E-01   1.00800           0
     11570 MEMB     87       POPC     C26      CTL2    -0.180000       12.0110           0
     11571 MEMB     87       POPC     H6R      HAL2     0.900000E-01   1.00800           0
     11572 MEMB     87       POPC     H6S      HAL2     0.900000E-01   1.00800           0
     11573 MEMB     87       POPC     C27      CTL2    -0.180000       12.0110           0
     11574 MEMB     87       POPC     H7R      HAL2     0.900000E-01   1.00800           0
     11575 MEMB     87       POPC     H7S      HAL2     0.900000E-01   1.00800           0
     11576 MEMB     87       POPC     C28      CTL2    -0.180000       12.0110           0
     11577 MEMB     87       POPC     H8R      HAL2     0.900000E-01   1.00800           0
     11578 MEMB     87       POPC     H8S      HAL2     0.900000E-01   1.00800           0
     11579 MEMB     87       POPC     C29      CEL1    -0.150000       12.0110           0
     11580 MEMB     87       POPC     H91      HEL1     0.150000       1.00800           0
     11581 MEMB     87       POPC     C210     CEL1    -0.150000       12.0110           0
     11582 MEMB     87       POPC     H101     HEL1     0.150000       1.00800           0
     11583 MEMB     87       POPC     C211     CTL2    -0.180000       12.0110           0
     11584 MEMB     87       POPC     H11R     HAL2     0.900000E-01   1.00800           0
     11585 MEMB     87       POPC     H11S     HAL2     0.900000E-01   1.00800           0
     11586 MEMB     87       POPC     C212     CTL2    -0.180000       12.0110           0
     11587 MEMB     87       POPC     H12R     HAL2     0.900000E-01   1.00800           0
     11588 MEMB     87       POPC     H12S     HAL2     0.900000E-01   1.00800           0
     11589 MEMB     87       POPC     C213     CTL2    -0.180000       12.0110           0
     11590 MEMB     87       POPC     H13R     HAL2     0.900000E-01   1.00800           0
     11591 MEMB     87       POPC     H13S     HAL2     0.900000E-01   1.00800           0
     11592 MEMB     87       POPC     C214     CTL2    -0.180000       12.0110           0
     11593 MEMB     87       POPC     H14R     HAL2     0.900000E-01   1.00800           0
     11594 MEMB     87       POPC     H14S     HAL2     0.900000E-01   1.00800           0
     11595 MEMB     87       POPC     C215     CTL2    -0.180000       12.0110           0
     11596 MEMB     87       POPC     H15R     HAL2     0.900000E-01   1.00800           0
     11597 MEMB     87       POPC     H15S     HAL2     0.900000E-01   1.00800           0
     11598 MEMB     87       POPC     C216     CTL2    -0.180000       12.0110           0
     11599 MEMB     87       POPC     H16R     HAL2     0.900000E-01   1.00800           0
     11600 MEMB     87       POPC     H16S     HAL2     0.900000E-01   1.00800           0
     11601 MEMB     87       POPC     C217     CTL2    -0.180000       12.0110           0
     11602 MEMB     87       POPC     H17R     HAL2     0.900000E-01   1.00800           0
     11603 MEMB     87       POPC     H17S     HAL2     0.900000E-01   1.00800           0
     11604 MEMB     87       POPC     C218     CTL3    -0.270000       12.0110           0
     11605 MEMB     87       POPC     H18R     HAL3     0.900000E-01   1.00800           0
     11606 MEMB     87       POPC     H18S     HAL3     0.900000E-01   1.00800           0
     11607 MEMB     87       POPC     H18T     HAL3     0.900000E-01   1.00800           0
     11608 MEMB     87       POPC     C33      CTL2    -0.180000       12.0110           0
     11609 MEMB     87       POPC     H3X      HAL2     0.900000E-01   1.00800           0
     11610 MEMB     87       POPC     H3Y      HAL2     0.900000E-01   1.00800           0
     11611 MEMB     87       POPC     C34      CTL2    -0.180000       12.0110           0
     11612 MEMB     87       POPC     H4X      HAL2     0.900000E-01   1.00800           0
     11613 MEMB     87       POPC     H4Y      HAL2     0.900000E-01   1.00800           0
     11614 MEMB     87       POPC     C35      CTL2    -0.180000       12.0110           0
     11615 MEMB     87       POPC     H5X      HAL2     0.900000E-01   1.00800           0
     11616 MEMB     87       POPC     H5Y      HAL2     0.900000E-01   1.00800           0
     11617 MEMB     87       POPC     C36      CTL2    -0.180000       12.0110           0
     11618 MEMB     87       POPC     H6X      HAL2     0.900000E-01   1.00800           0
     11619 MEMB     87       POPC     H6Y      HAL2     0.900000E-01   1.00800           0
     11620 MEMB     87       POPC     C37      CTL2    -0.180000       12.0110           0
     11621 MEMB     87       POPC     H7X      HAL2     0.900000E-01   1.00800           0
     11622 MEMB     87       POPC     H7Y      HAL2     0.900000E-01   1.00800           0
     11623 MEMB     87       POPC     C38      CTL2    -0.180000       12.0110           0
     11624 MEMB     87       POPC     H8X      HAL2     0.900000E-01   1.00800           0
     11625 MEMB     87       POPC     H8Y      HAL2     0.900000E-01   1.00800           0
     11626 MEMB     87       POPC     C39      CTL2    -0.180000       12.0110           0
     11627 MEMB     87       POPC     H9X      HAL2     0.900000E-01   1.00800           0
     11628 MEMB     87       POPC     H9Y      HAL2     0.900000E-01   1.00800           0
     11629 MEMB     87       POPC     C310     CTL2    -0.180000       12.0110           0
     11630 MEMB     87       POPC     H10X     HAL2     0.900000E-01   1.00800           0
     11631 MEMB     87       POPC     H10Y     HAL2     0.900000E-01   1.00800           0
     11632 MEMB     87       POPC     C311     CTL2    -0.180000       12.0110           0
     11633 MEMB     87       POPC     H11X     HAL2     0.900000E-01   1.00800           0
     11634 MEMB     87       POPC     H11Y     HAL2     0.900000E-01   1.00800           0
     11635 MEMB     87       POPC     C312     CTL2    -0.180000       12.0110           0
     11636 MEMB     87       POPC     H12X     HAL2     0.900000E-01   1.00800           0
     11637 MEMB     87       POPC     H12Y     HAL2     0.900000E-01   1.00800           0
     11638 MEMB     87       POPC     C313     CTL2    -0.180000       12.0110           0
     11639 MEMB     87       POPC     H13X     HAL2     0.900000E-01   1.00800           0
     11640 MEMB     87       POPC     H13Y     HAL2     0.900000E-01   1.00800           0
     11641 MEMB     87       POPC     C314     CTL2    -0.180000       12.0110           0
     11642 MEMB     87       POPC     H14X     HAL2     0.900000E-01   1.00800           0
     11643 MEMB     87       POPC     H14Y     HAL2     0.900000E-01   1.00800           0
     11644 MEMB     87       POPC     C315     CTL2    -0.180000       12.0110           0
     11645 MEMB     87       POPC     H15X     HAL2     0.900000E-01   1.00800           0
     11646 MEMB     87       POPC     H15Y     HAL2     0.900000E-01   1.00800           0
     11647 MEMB     87       POPC     C316     CTL3    -0.270000       12.0110           0
     11648 MEMB     87       POPC     H16X     HAL3     0.900000E-01   1.00800           0
     11649 MEMB     87       POPC     H16Y     HAL3     0.900000E-01   1.00800           0
     11650 MEMB     87       POPC     H16Z     HAL3     0.900000E-01   1.00800           0
     11651 MEMB     88       POPC     N        NTL     -0.600000       14.0070           0
     11652 MEMB     88       POPC     C12      CTL2    -0.100000       12.0110           0
     11653 MEMB     88       POPC     H12A     HL       0.250000       1.00800           0
     11654 MEMB     88       POPC     H12B     HL       0.250000       1.00800           0
     11655 MEMB     88       POPC     C13      CTL5    -0.350000       12.0110           0
     11656 MEMB     88       POPC     H13A     HL       0.250000       1.00800           0
     11657 MEMB     88       POPC     H13B     HL       0.250000       1.00800           0
     11658 MEMB     88       POPC     H13C     HL       0.250000       1.00800           0
     11659 MEMB     88       POPC     C14      CTL5    -0.350000       12.0110           0
     11660 MEMB     88       POPC     H14A     HL       0.250000       1.00800           0
     11661 MEMB     88       POPC     H14B     HL       0.250000       1.00800           0
     11662 MEMB     88       POPC     H14C     HL       0.250000       1.00800           0
     11663 MEMB     88       POPC     C15      CTL5    -0.350000       12.0110           0
     11664 MEMB     88       POPC     H15A     HL       0.250000       1.00800           0
     11665 MEMB     88       POPC     H15B     HL       0.250000       1.00800           0
     11666 MEMB     88       POPC     H15C     HL       0.250000       1.00800           0
     11667 MEMB     88       POPC     C11      CTL2    -0.800000E-01   12.0110           0
     11668 MEMB     88       POPC     H11A     HAL2     0.900000E-01   1.00800           0
     11669 MEMB     88       POPC     H11B     HAL2     0.900000E-01   1.00800           0
     11670 MEMB     88       POPC     P        PL        1.50000       30.9740           0
     11671 MEMB     88       POPC     O13      O2L     -0.780000       15.9994           0
     11672 MEMB     88       POPC     O14      O2L     -0.780000       15.9994           0
     11673 MEMB     88       POPC     O12      OSLP    -0.570000       15.9994           0
     11674 MEMB     88       POPC     O11      OSLP    -0.570000       15.9994           0
     11675 MEMB     88       POPC     C1       CTL2    -0.800000E-01   12.0110           0
     11676 MEMB     88       POPC     HA       HAL2     0.900000E-01   1.00800           0
     11677 MEMB     88       POPC     HB       HAL2     0.900000E-01   1.00800           0
     11678 MEMB     88       POPC     C2       CTL1     0.170000       12.0110           0
     11679 MEMB     88       POPC     HS       HAL1     0.900000E-01   1.00800           0
     11680 MEMB     88       POPC     O21      OSL     -0.490000       15.9994           0
     11681 MEMB     88       POPC     C21      CL       0.900000       12.0110           0
     11682 MEMB     88       POPC     O22      OBL     -0.630000       15.9994           0
     11683 MEMB     88       POPC     C22      CTL2    -0.220000       12.0110           0
     11684 MEMB     88       POPC     H2R      HAL2     0.900000E-01   1.00800           0
     11685 MEMB     88       POPC     H2S      HAL2     0.900000E-01   1.00800           0
     11686 MEMB     88       POPC     C3       CTL2     0.800000E-01   12.0110           0
     11687 MEMB     88       POPC     HX       HAL2     0.900000E-01   1.00800           0
     11688 MEMB     88       POPC     HY       HAL2     0.900000E-01   1.00800           0
     11689 MEMB     88       POPC     O31      OSL     -0.490000       15.9994           0
     11690 MEMB     88       POPC     C31      CL       0.900000       12.0110           0
     11691 MEMB     88       POPC     O32      OBL     -0.630000       15.9994           0
     11692 MEMB     88       POPC     C32      CTL2    -0.220000       12.0110           0
     11693 MEMB     88       POPC     H2X      HAL2     0.900000E-01   1.00800           0
     11694 MEMB     88       POPC     H2Y      HAL2     0.900000E-01   1.00800           0
     11695 MEMB     88       POPC     C23      CTL2    -0.180000       12.0110           0
     11696 MEMB     88       POPC     H3R      HAL2     0.900000E-01   1.00800           0
     11697 MEMB     88       POPC     H3S      HAL2     0.900000E-01   1.00800           0
     11698 MEMB     88       POPC     C24      CTL2    -0.180000       12.0110           0
     11699 MEMB     88       POPC     H4R      HAL2     0.900000E-01   1.00800           0
     11700 MEMB     88       POPC     H4S      HAL2     0.900000E-01   1.00800           0
     11701 MEMB     88       POPC     C25      CTL2    -0.180000       12.0110           0
     11702 MEMB     88       POPC     H5R      HAL2     0.900000E-01   1.00800           0
     11703 MEMB     88       POPC     H5S      HAL2     0.900000E-01   1.00800           0
     11704 MEMB     88       POPC     C26      CTL2    -0.180000       12.0110           0
     11705 MEMB     88       POPC     H6R      HAL2     0.900000E-01   1.00800           0
     11706 MEMB     88       POPC     H6S      HAL2     0.900000E-01   1.00800           0
     11707 MEMB     88       POPC     C27      CTL2    -0.180000       12.0110           0
     11708 MEMB     88       POPC     H7R      HAL2     0.900000E-01   1.00800           0
     11709 MEMB     88       POPC     H7S      HAL2     0.900000E-01   1.00800           0
     11710 MEMB     88       POPC     C28      CTL2    -0.180000       12.0110           0
     11711 MEMB     88       POPC     H8R      HAL2     0.900000E-01   1.00800           0
     11712 MEMB     88       POPC     H8S      HAL2     0.900000E-01   1.00800           0
     11713 MEMB     88       POPC     C29      CEL1    -0.150000       12.0110           0
     11714 MEMB     88       POPC     H91      HEL1     0.150000       1.00800           0
     11715 MEMB     88       POPC     C210     CEL1    -0.150000       12.0110           0
     11716 MEMB     88       POPC     H101     HEL1     0.150000       1.00800           0
     11717 MEMB     88       POPC     C211     CTL2    -0.180000       12.0110           0
     11718 MEMB     88       POPC     H11R     HAL2     0.900000E-01   1.00800           0
     11719 MEMB     88       POPC     H11S     HAL2     0.900000E-01   1.00800           0
     11720 MEMB     88       POPC     C212     CTL2    -0.180000       12.0110           0
     11721 MEMB     88       POPC     H12R     HAL2     0.900000E-01   1.00800           0
     11722 MEMB     88       POPC     H12S     HAL2     0.900000E-01   1.00800           0
     11723 MEMB     88       POPC     C213     CTL2    -0.180000       12.0110           0
     11724 MEMB     88       POPC     H13R     HAL2     0.900000E-01   1.00800           0
     11725 MEMB     88       POPC     H13S     HAL2     0.900000E-01   1.00800           0
     11726 MEMB     88       POPC     C214     CTL2    -0.180000       12.0110           0
     11727 MEMB     88       POPC     H14R     HAL2     0.900000E-01   1.00800           0
     11728 MEMB     88       POPC     H14S     HAL2     0.900000E-01   1.00800           0
     11729 MEMB     88       POPC     C215     CTL2    -0.180000       12.0110           0
     11730 MEMB     88       POPC     H15R     HAL2     0.900000E-01   1.00800           0
     11731 MEMB     88       POPC     H15S     HAL2     0.900000E-01   1.00800           0
     11732 MEMB     88       POPC     C216     CTL2    -0.180000       12.0110           0
     11733 MEMB     88       POPC     H16R     HAL2     0.900000E-01   1.00800           0
     11734 MEMB     88       POPC     H16S     HAL2     0.900000E-01   1.00800           0
     11735 MEMB     88       POPC     C217     CTL2    -0.180000       12.0110           0
     11736 MEMB     88       POPC     H17R     HAL2     0.900000E-01   1.00800           0
     11737 MEMB     88       POPC     H17S     HAL2     0.900000E-01   1.00800           0
     11738 MEMB     88       POPC     C218     CTL3    -0.270000       12.0110           0
     11739 MEMB     88       POPC     H18R     HAL3     0.900000E-01   1.00800           0
     11740 MEMB     88       POPC     H18S     HAL3     0.900000E-01   1.00800           0
     11741 MEMB     88       POPC     H18T     HAL3     0.900000E-01   1.00800           0
     11742 MEMB     88       POPC     C33      CTL2    -0.180000       12.0110           0
     11743 MEMB     88       POPC     H3X      HAL2     0.900000E-01   1.00800           0
     11744 MEMB     88       POPC     H3Y      HAL2     0.900000E-01   1.00800           0
     11745 MEMB     88       POPC     C34      CTL2    -0.180000       12.0110           0
     11746 MEMB     88       POPC     H4X      HAL2     0.900000E-01   1.00800           0
     11747 MEMB     88       POPC     H4Y      HAL2     0.900000E-01   1.00800           0
     11748 MEMB     88       POPC     C35      CTL2    -0.180000       12.0110           0
     11749 MEMB     88       POPC     H5X      HAL2     0.900000E-01   1.00800           0
     11750 MEMB     88       POPC     H5Y      HAL2     0.900000E-01   1.00800           0
     11751 MEMB     88       POPC     C36      CTL2    -0.180000       12.0110           0
     11752 MEMB     88       POPC     H6X      HAL2     0.900000E-01   1.00800           0
     11753 MEMB     88       POPC     H6Y      HAL2     0.900000E-01   1.00800           0
     11754 MEMB     88       POPC     C37      CTL2    -0.180000       12.0110           0
     11755 MEMB     88       POPC     H7X      HAL2     0.900000E-01   1.00800           0
     11756 MEMB     88       POPC     H7Y      HAL2     0.900000E-01   1.00800           0
     11757 MEMB     88       POPC     C38      CTL2    -0.180000       12.0110           0
     11758 MEMB     88       POPC     H8X      HAL2     0.900000E-01   1.00800           0
     11759 MEMB     88       POPC     H8Y      HAL2     0.900000E-01   1.00800           0
     11760 MEMB     88       POPC     C39      CTL2    -0.180000       12.0110           0
     11761 MEMB     88       POPC     H9X      HAL2     0.900000E-01   1.00800           0
     11762 MEMB     88       POPC     H9Y      HAL2     0.900000E-01   1.00800           0
     11763 MEMB     88       POPC     C310     CTL2    -0.180000       12.0110           0
     11764 MEMB     88       POPC     H10X     HAL2     0.900000E-01   1.00800           0
     11765 MEMB     88       POPC     H10Y     HAL2     0.900000E-01   1.00800           0
     11766 MEMB     88       POPC     C311     CTL2    -0.180000       12.0110           0
     11767 MEMB     88       POPC     H11X     HAL2     0.900000E-01   1.00800           0
     11768 MEMB     88       POPC     H11Y     HAL2     0.900000E-01   1.00800           0
     11769 MEMB     88       POPC     C312     CTL2    -0.180000       12.0110           0
     11770 MEMB     88       POPC     H12X     HAL2     0.900000E-01   1.00800           0
     11771 MEMB     88       POPC     H12Y     HAL2     0.900000E-01   1.00800           0
     11772 MEMB     88       POPC     C313     CTL2    -0.180000       12.0110           0
     11773 MEMB     88       POPC     H13X     HAL2     0.900000E-01   1.00800           0
     11774 MEMB     88       POPC     H13Y     HAL2     0.900000E-01   1.00800           0
     11775 MEMB     88       POPC     C314     CTL2    -0.180000       12.0110           0
     11776 MEMB     88       POPC     H14X     HAL2     0.900000E-01   1.00800           0
     11777 MEMB     88       POPC     H14Y     HAL2     0.900000E-01   1.00800           0
     11778 MEMB     88       POPC     C315     CTL2    -0.180000       12.0110           0
     11779 MEMB     88       POPC     H15X     HAL2     0.900000E-01   1.00800           0
     11780 MEMB     88       POPC     H15Y     HAL2     0.900000E-01   1.00800           0
     11781 MEMB     88       POPC     C316     CTL3    -0.270000       12.0110           0
     11782 MEMB     88       POPC     H16X     HAL3     0.900000E-01   1.00800           0
     11783 MEMB     88       POPC     H16Y     HAL3     0.900000E-01   1.00800           0
     11784 MEMB     88       POPC     H16Z     HAL3     0.900000E-01   1.00800           0
     11785 MEMB     89       POPC     N        NTL     -0.600000       14.0070           0
     11786 MEMB     89       POPC     C12      CTL2    -0.100000       12.0110           0
     11787 MEMB     89       POPC     H12A     HL       0.250000       1.00800           0
     11788 MEMB     89       POPC     H12B     HL       0.250000       1.00800           0
     11789 MEMB     89       POPC     C13      CTL5    -0.350000       12.0110           0
     11790 MEMB     89       POPC     H13A     HL       0.250000       1.00800           0
     11791 MEMB     89       POPC     H13B     HL       0.250000       1.00800           0
     11792 MEMB     89       POPC     H13C     HL       0.250000       1.00800           0
     11793 MEMB     89       POPC     C14      CTL5    -0.350000       12.0110           0
     11794 MEMB     89       POPC     H14A     HL       0.250000       1.00800           0
     11795 MEMB     89       POPC     H14B     HL       0.250000       1.00800           0
     11796 MEMB     89       POPC     H14C     HL       0.250000       1.00800           0
     11797 MEMB     89       POPC     C15      CTL5    -0.350000       12.0110           0
     11798 MEMB     89       POPC     H15A     HL       0.250000       1.00800           0
     11799 MEMB     89       POPC     H15B     HL       0.250000       1.00800           0
     11800 MEMB     89       POPC     H15C     HL       0.250000       1.00800           0
     11801 MEMB     89       POPC     C11      CTL2    -0.800000E-01   12.0110           0
     11802 MEMB     89       POPC     H11A     HAL2     0.900000E-01   1.00800           0
     11803 MEMB     89       POPC     H11B     HAL2     0.900000E-01   1.00800           0
     11804 MEMB     89       POPC     P        PL        1.50000       30.9740           0
     11805 MEMB     89       POPC     O13      O2L     -0.780000       15.9994           0
     11806 MEMB     89       POPC     O14      O2L     -0.780000       15.9994           0
     11807 MEMB     89       POPC     O12      OSLP    -0.570000       15.9994           0
     11808 MEMB     89       POPC     O11      OSLP    -0.570000       15.9994           0
     11809 MEMB     89       POPC     C1       CTL2    -0.800000E-01   12.0110           0
     11810 MEMB     89       POPC     HA       HAL2     0.900000E-01   1.00800           0
     11811 MEMB     89       POPC     HB       HAL2     0.900000E-01   1.00800           0
     11812 MEMB     89       POPC     C2       CTL1     0.170000       12.0110           0
     11813 MEMB     89       POPC     HS       HAL1     0.900000E-01   1.00800           0
     11814 MEMB     89       POPC     O21      OSL     -0.490000       15.9994           0
     11815 MEMB     89       POPC     C21      CL       0.900000       12.0110           0
     11816 MEMB     89       POPC     O22      OBL     -0.630000       15.9994           0
     11817 MEMB     89       POPC     C22      CTL2    -0.220000       12.0110           0
     11818 MEMB     89       POPC     H2R      HAL2     0.900000E-01   1.00800           0
     11819 MEMB     89       POPC     H2S      HAL2     0.900000E-01   1.00800           0
     11820 MEMB     89       POPC     C3       CTL2     0.800000E-01   12.0110           0
     11821 MEMB     89       POPC     HX       HAL2     0.900000E-01   1.00800           0
     11822 MEMB     89       POPC     HY       HAL2     0.900000E-01   1.00800           0
     11823 MEMB     89       POPC     O31      OSL     -0.490000       15.9994           0
     11824 MEMB     89       POPC     C31      CL       0.900000       12.0110           0
     11825 MEMB     89       POPC     O32      OBL     -0.630000       15.9994           0
     11826 MEMB     89       POPC     C32      CTL2    -0.220000       12.0110           0
     11827 MEMB     89       POPC     H2X      HAL2     0.900000E-01   1.00800           0
     11828 MEMB     89       POPC     H2Y      HAL2     0.900000E-01   1.00800           0
     11829 MEMB     89       POPC     C23      CTL2    -0.180000       12.0110           0
     11830 MEMB     89       POPC     H3R      HAL2     0.900000E-01   1.00800           0
     11831 MEMB     89       POPC     H3S      HAL2     0.900000E-01   1.00800           0
     11832 MEMB     89       POPC     C24      CTL2    -0.180000       12.0110           0
     11833 MEMB     89       POPC     H4R      HAL2     0.900000E-01   1.00800           0
     11834 MEMB     89       POPC     H4S      HAL2     0.900000E-01   1.00800           0
     11835 MEMB     89       POPC     C25      CTL2    -0.180000       12.0110           0
     11836 MEMB     89       POPC     H5R      HAL2     0.900000E-01   1.00800           0
     11837 MEMB     89       POPC     H5S      HAL2     0.900000E-01   1.00800           0
     11838 MEMB     89       POPC     C26      CTL2    -0.180000       12.0110           0
     11839 MEMB     89       POPC     H6R      HAL2     0.900000E-01   1.00800           0
     11840 MEMB     89       POPC     H6S      HAL2     0.900000E-01   1.00800           0
     11841 MEMB     89       POPC     C27      CTL2    -0.180000       12.0110           0
     11842 MEMB     89       POPC     H7R      HAL2     0.900000E-01   1.00800           0
     11843 MEMB     89       POPC     H7S      HAL2     0.900000E-01   1.00800           0
     11844 MEMB     89       POPC     C28      CTL2    -0.180000       12.0110           0
     11845 MEMB     89       POPC     H8R      HAL2     0.900000E-01   1.00800           0
     11846 MEMB     89       POPC     H8S      HAL2     0.900000E-01   1.00800           0
     11847 MEMB     89       POPC     C29      CEL1    -0.150000       12.0110           0
     11848 MEMB     89       POPC     H91      HEL1     0.150000       1.00800           0
     11849 MEMB     89       POPC     C210     CEL1    -0.150000       12.0110           0
     11850 MEMB     89       POPC     H101     HEL1     0.150000       1.00800           0
     11851 MEMB     89       POPC     C211     CTL2    -0.180000       12.0110           0
     11852 MEMB     89       POPC     H11R     HAL2     0.900000E-01   1.00800           0
     11853 MEMB     89       POPC     H11S     HAL2     0.900000E-01   1.00800           0
     11854 MEMB     89       POPC     C212     CTL2    -0.180000       12.0110           0
     11855 MEMB     89       POPC     H12R     HAL2     0.900000E-01   1.00800           0
     11856 MEMB     89       POPC     H12S     HAL2     0.900000E-01   1.00800           0
     11857 MEMB     89       POPC     C213     CTL2    -0.180000       12.0110           0
     11858 MEMB     89       POPC     H13R     HAL2     0.900000E-01   1.00800           0
     11859 MEMB     89       POPC     H13S     HAL2     0.900000E-01   1.00800           0
     11860 MEMB     89       POPC     C214     CTL2    -0.180000       12.0110           0
     11861 MEMB     89       POPC     H14R     HAL2     0.900000E-01   1.00800           0
     11862 MEMB     89       POPC     H14S     HAL2     0.900000E-01   1.00800           0
     11863 MEMB     89       POPC     C215     CTL2    -0.180000       12.0110           0
     11864 MEMB     89       POPC     H15R     HAL2     0.900000E-01   1.00800           0
     11865 MEMB     89       POPC     H15S     HAL2     0.900000E-01   1.00800           0
     11866 MEMB     89       POPC     C216     CTL2    -0.180000       12.0110           0
     11867 MEMB     89       POPC     H16R     HAL2     0.900000E-01   1.00800           0
     11868 MEMB     89       POPC     H16S     HAL2     0.900000E-01   1.00800           0
     11869 MEMB     89       POPC     C217     CTL2    -0.180000       12.0110           0
     11870 MEMB     89       POPC     H17R     HAL2     0.900000E-01   1.00800           0
     11871 MEMB     89       POPC     H17S     HAL2     0.900000E-01   1.00800           0
     11872 MEMB     89       POPC     C218     CTL3    -0.270000       12.0110           0
     11873 MEMB     89       POPC     H18R     HAL3     0.900000E-01   1.00800           0
     11874 MEMB     89       POPC     H18S     HAL3     0.900000E-01   1.00800           0
     11875 MEMB     89       POPC     H18T     HAL3     0.900000E-01   1.00800           0
     11876 MEMB     89       POPC     C33      CTL2    -0.180000       12.0110           0
     11877 MEMB     89       POPC     H3X      HAL2     0.900000E-01   1.00800           0
     11878 MEMB     89       POPC     H3Y      HAL2     0.900000E-01   1.00800           0
     11879 MEMB     89       POPC     C34      CTL2    -0.180000       12.0110           0
     11880 MEMB     89       POPC     H4X      HAL2     0.900000E-01   1.00800           0
     11881 MEMB     89       POPC     H4Y      HAL2     0.900000E-01   1.00800           0
     11882 MEMB     89       POPC     C35      CTL2    -0.180000       12.0110           0
     11883 MEMB     89       POPC     H5X      HAL2     0.900000E-01   1.00800           0
     11884 MEMB     89       POPC     H5Y      HAL2     0.900000E-01   1.00800           0
     11885 MEMB     89       POPC     C36      CTL2    -0.180000       12.0110           0
     11886 MEMB     89       POPC     H6X      HAL2     0.900000E-01   1.00800           0
     11887 MEMB     89       POPC     H6Y      HAL2     0.900000E-01   1.00800           0
     11888 MEMB     89       POPC     C37      CTL2    -0.180000       12.0110           0
     11889 MEMB     89       POPC     H7X      HAL2     0.900000E-01   1.00800           0
     11890 MEMB     89       POPC     H7Y      HAL2     0.900000E-01   1.00800           0
     11891 MEMB     89       POPC     C38      CTL2    -0.180000       12.0110           0
     11892 MEMB     89       POPC     H8X      HAL2     0.900000E-01   1.00800           0
     11893 MEMB     89       POPC     H8Y      HAL2     0.900000E-01   1.00800           0
     11894 MEMB     89       POPC     C39      CTL2    -0.180000       12.0110           0
     11895 MEMB     89       POPC     H9X      HAL2     0.900000E-01   1.00800           0
     11896 MEMB     89       POPC     H9Y      HAL2     0.900000E-01   1.00800           0
     11897 MEMB     89       POPC     C310     CTL2    -0.180000       12.0110           0
     11898 MEMB     89       POPC     H10X     HAL2     0.900000E-01   1.00800           0
     11899 MEMB     89       POPC     H10Y     HAL2     0.900000E-01   1.00800           0
     11900 MEMB     89       POPC     C311     CTL2    -0.180000       12.0110           0
     11901 MEMB     89       POPC     H11X     HAL2     0.900000E-01   1.00800           0
     11902 MEMB     89       POPC     H11Y     HAL2     0.900000E-01   1.00800           0
     11903 MEMB     89       POPC     C312     CTL2    -0.180000       12.0110           0
     11904 MEMB     89       POPC     H12X     HAL2     0.900000E-01   1.00800           0
     11905 MEMB     89       POPC     H12Y     HAL2     0.900000E-01   1.00800           0
     11906 MEMB     89       POPC     C313     CTL2    -0.180000       12.0110           0
     11907 MEMB     89       POPC     H13X     HAL2     0.900000E-01   1.00800           0
     11908 MEMB     89       POPC     H13Y     HAL2     0.900000E-01   1.00800           0
     11909 MEMB     89       POPC     C314     CTL2    -0.180000       12.0110           0
     11910 MEMB     89       POPC     H14X     HAL2     0.900000E-01   1.00800           0
     11911 MEMB     89       POPC     H14Y     HAL2     0.900000E-01   1.00800           0
     11912 MEMB     89       POPC     C315     CTL2    -0.180000       12.0110           0
     11913 MEMB     89       POPC     H15X     HAL2     0.900000E-01   1.00800           0
     11914 MEMB     89       POPC     H15Y     HAL2     0.900000E-01   1.00800           0
     11915 MEMB     89       POPC     C316     CTL3    -0.270000       12.0110           0
     11916 MEMB     89       POPC     H16X     HAL3     0.900000E-01   1.00800           0
     11917 MEMB     89       POPC     H16Y     HAL3     0.900000E-01   1.00800           0
     11918 MEMB     89       POPC     H16Z     HAL3     0.900000E-01   1.00800           0
     11919 MEMB     90       POPC     N        NTL     -0.600000       14.0070           0
     11920 MEMB     90       POPC     C12      CTL2    -0.100000       12.0110           0
     11921 MEMB     90       POPC     H12A     HL       0.250000       1.00800           0
     11922 MEMB     90       POPC     H12B     HL       0.250000       1.00800           0
     11923 MEMB     90       POPC     C13      CTL5    -0.350000       12.0110           0
     11924 MEMB     90       POPC     H13A     HL       0.250000       1.00800           0
     11925 MEMB     90       POPC     H13B     HL       0.250000       1.00800           0
     11926 MEMB     90       POPC     H13C     HL       0.250000       1.00800           0
     11927 MEMB     90       POPC     C14      CTL5    -0.350000       12.0110           0
     11928 MEMB     90       POPC     H14A     HL       0.250000       1.00800           0
     11929 MEMB     90       POPC     H14B     HL       0.250000       1.00800           0
     11930 MEMB     90       POPC     H14C     HL       0.250000       1.00800           0
     11931 MEMB     90       POPC     C15      CTL5    -0.350000       12.0110           0
     11932 MEMB     90       POPC     H15A     HL       0.250000       1.00800           0
     11933 MEMB     90       POPC     H15B     HL       0.250000       1.00800           0
     11934 MEMB     90       POPC     H15C     HL       0.250000       1.00800           0
     11935 MEMB     90       POPC     C11      CTL2    -0.800000E-01   12.0110           0
     11936 MEMB     90       POPC     H11A     HAL2     0.900000E-01   1.00800           0
     11937 MEMB     90       POPC     H11B     HAL2     0.900000E-01   1.00800           0
     11938 MEMB     90       POPC     P        PL        1.50000       30.9740           0
     11939 MEMB     90       POPC     O13      O2L     -0.780000       15.9994           0
     11940 MEMB     90       POPC     O14      O2L     -0.780000       15.9994           0
     11941 MEMB     90       POPC     O12      OSLP    -0.570000       15.9994           0
     11942 MEMB     90       POPC     O11      OSLP    -0.570000       15.9994           0
     11943 MEMB     90       POPC     C1       CTL2    -0.800000E-01   12.0110           0
     11944 MEMB     90       POPC     HA       HAL2     0.900000E-01   1.00800           0
     11945 MEMB     90       POPC     HB       HAL2     0.900000E-01   1.00800           0
     11946 MEMB     90       POPC     C2       CTL1     0.170000       12.0110           0
     11947 MEMB     90       POPC     HS       HAL1     0.900000E-01   1.00800           0
     11948 MEMB     90       POPC     O21      OSL     -0.490000       15.9994           0
     11949 MEMB     90       POPC     C21      CL       0.900000       12.0110           0
     11950 MEMB     90       POPC     O22      OBL     -0.630000       15.9994           0
     11951 MEMB     90       POPC     C22      CTL2    -0.220000       12.0110           0
     11952 MEMB     90       POPC     H2R      HAL2     0.900000E-01   1.00800           0
     11953 MEMB     90       POPC     H2S      HAL2     0.900000E-01   1.00800           0
     11954 MEMB     90       POPC     C3       CTL2     0.800000E-01   12.0110           0
     11955 MEMB     90       POPC     HX       HAL2     0.900000E-01   1.00800           0
     11956 MEMB     90       POPC     HY       HAL2     0.900000E-01   1.00800           0
     11957 MEMB     90       POPC     O31      OSL     -0.490000       15.9994           0
     11958 MEMB     90       POPC     C31      CL       0.900000       12.0110           0
     11959 MEMB     90       POPC     O32      OBL     -0.630000       15.9994           0
     11960 MEMB     90       POPC     C32      CTL2    -0.220000       12.0110           0
     11961 MEMB     90       POPC     H2X      HAL2     0.900000E-01   1.00800           0
     11962 MEMB     90       POPC     H2Y      HAL2     0.900000E-01   1.00800           0
     11963 MEMB     90       POPC     C23      CTL2    -0.180000       12.0110           0
     11964 MEMB     90       POPC     H3R      HAL2     0.900000E-01   1.00800           0
     11965 MEMB     90       POPC     H3S      HAL2     0.900000E-01   1.00800           0
     11966 MEMB     90       POPC     C24      CTL2    -0.180000       12.0110           0
     11967 MEMB     90       POPC     H4R      HAL2     0.900000E-01   1.00800           0
     11968 MEMB     90       POPC     H4S      HAL2     0.900000E-01   1.00800           0
     11969 MEMB     90       POPC     C25      CTL2    -0.180000       12.0110           0
     11970 MEMB     90       POPC     H5R      HAL2     0.900000E-01   1.00800           0
     11971 MEMB     90       POPC     H5S      HAL2     0.900000E-01   1.00800           0
     11972 MEMB     90       POPC     C26      CTL2    -0.180000       12.0110           0
     11973 MEMB     90       POPC     H6R      HAL2     0.900000E-01   1.00800           0
     11974 MEMB     90       POPC     H6S      HAL2     0.900000E-01   1.00800           0
     11975 MEMB     90       POPC     C27      CTL2    -0.180000       12.0110           0
     11976 MEMB     90       POPC     H7R      HAL2     0.900000E-01   1.00800           0
     11977 MEMB     90       POPC     H7S      HAL2     0.900000E-01   1.00800           0
     11978 MEMB     90       POPC     C28      CTL2    -0.180000       12.0110           0
     11979 MEMB     90       POPC     H8R      HAL2     0.900000E-01   1.00800           0
     11980 MEMB     90       POPC     H8S      HAL2     0.900000E-01   1.00800           0
     11981 MEMB     90       POPC     C29      CEL1    -0.150000       12.0110           0
     11982 MEMB     90       POPC     H91      HEL1     0.150000       1.00800           0
     11983 MEMB     90       POPC     C210     CEL1    -0.150000       12.0110           0
     11984 MEMB     90       POPC     H101     HEL1     0.150000       1.00800           0
     11985 MEMB     90       POPC     C211     CTL2    -0.180000       12.0110           0
     11986 MEMB     90       POPC     H11R     HAL2     0.900000E-01   1.00800           0
     11987 MEMB     90       POPC     H11S     HAL2     0.900000E-01   1.00800           0
     11988 MEMB     90       POPC     C212     CTL2    -0.180000       12.0110           0
     11989 MEMB     90       POPC     H12R     HAL2     0.900000E-01   1.00800           0
     11990 MEMB     90       POPC     H12S     HAL2     0.900000E-01   1.00800           0
     11991 MEMB     90       POPC     C213     CTL2    -0.180000       12.0110           0
     11992 MEMB     90       POPC     H13R     HAL2     0.900000E-01   1.00800           0
     11993 MEMB     90       POPC     H13S     HAL2     0.900000E-01   1.00800           0
     11994 MEMB     90       POPC     C214     CTL2    -0.180000       12.0110           0
     11995 MEMB     90       POPC     H14R     HAL2     0.900000E-01   1.00800           0
     11996 MEMB     90       POPC     H14S     HAL2     0.900000E-01   1.00800           0
     11997 MEMB     90       POPC     C215     CTL2    -0.180000       12.0110           0
     11998 MEMB     90       POPC     H15R     HAL2     0.900000E-01   1.00800           0
     11999 MEMB     90       POPC     H15S     HAL2     0.900000E-01   1.00800           0
     12000 MEMB     90       POPC     C216     CTL2    -0.180000       12.0110           0
     12001 MEMB     90       POPC     H16R     HAL2     0.900000E-01   1.00800           0
     12002 MEMB     90       POPC     H16S     HAL2     0.900000E-01   1.00800           0
     12003 MEMB     90       POPC     C217     CTL2    -0.180000       12.0110           0
     12004 MEMB     90       POPC     H17R     HAL2     0.900000E-01   1.00800           0
     12005 MEMB     90       POPC     H17S     HAL2     0.900000E-01   1.00800           0
     12006 MEMB     90       POPC     C218     CTL3    -0.270000       12.0110           0
     12007 MEMB     90       POPC     H18R     HAL3     0.900000E-01   1.00800           0
     12008 MEMB     90       POPC     H18S     HAL3     0.900000E-01   1.00800           0
     12009 MEMB     90       POPC     H18T     HAL3     0.900000E-01   1.00800           0
     12010 MEMB     90       POPC     C33      CTL2    -0.180000       12.0110           0
     12011 MEMB     90       POPC     H3X      HAL2     0.900000E-01   1.00800           0
     12012 MEMB     90       POPC     H3Y      HAL2     0.900000E-01   1.00800           0
     12013 MEMB     90       POPC     C34      CTL2    -0.180000       12.0110           0
     12014 MEMB     90       POPC     H4X      HAL2     0.900000E-01   1.00800           0
     12015 MEMB     90       POPC     H4Y      HAL2     0.900000E-01   1.00800           0
     12016 MEMB     90       POPC     C35      CTL2    -0.180000       12.0110           0
     12017 MEMB     90       POPC     H5X      HAL2     0.900000E-01   1.00800           0
     12018 MEMB     90       POPC     H5Y      HAL2     0.900000E-01   1.00800           0
     12019 MEMB     90       POPC     C36      CTL2    -0.180000       12.0110           0
     12020 MEMB     90       POPC     H6X      HAL2     0.900000E-01   1.00800           0
     12021 MEMB     90       POPC     H6Y      HAL2     0.900000E-01   1.00800           0
     12022 MEMB     90       POPC     C37      CTL2    -0.180000       12.0110           0
     12023 MEMB     90       POPC     H7X      HAL2     0.900000E-01   1.00800           0
     12024 MEMB     90       POPC     H7Y      HAL2     0.900000E-01   1.00800           0
     12025 MEMB     90       POPC     C38      CTL2    -0.180000       12.0110           0
     12026 MEMB     90       POPC     H8X      HAL2     0.900000E-01   1.00800           0
     12027 MEMB     90       POPC     H8Y      HAL2     0.900000E-01   1.00800           0
     12028 MEMB     90       POPC     C39      CTL2    -0.180000       12.0110           0
     12029 MEMB     90       POPC     H9X      HAL2     0.900000E-01   1.00800           0
     12030 MEMB     90       POPC     H9Y      HAL2     0.900000E-01   1.00800           0
     12031 MEMB     90       POPC     C310     CTL2    -0.180000       12.0110           0
     12032 MEMB     90       POPC     H10X     HAL2     0.900000E-01   1.00800           0
     12033 MEMB     90       POPC     H10Y     HAL2     0.900000E-01   1.00800           0
     12034 MEMB     90       POPC     C311     CTL2    -0.180000       12.0110           0
     12035 MEMB     90       POPC     H11X     HAL2     0.900000E-01   1.00800           0
     12036 MEMB     90       POPC     H11Y     HAL2     0.900000E-01   1.00800           0
     12037 MEMB     90       POPC     C312     CTL2    -0.180000       12.0110           0
     12038 MEMB     90       POPC     H12X     HAL2     0.900000E-01   1.00800           0
     12039 MEMB     90       POPC     H12Y     HAL2     0.900000E-01   1.00800           0
     12040 MEMB     90       POPC     C313     CTL2    -0.180000       12.0110           0
     12041 MEMB     90       POPC     H13X     HAL2     0.900000E-01   1.00800           0
     12042 MEMB     90       POPC     H13Y     HAL2     0.900000E-01   1.00800           0
     12043 MEMB     90       POPC     C314     CTL2    -0.180000       12.0110           0
     12044 MEMB     90       POPC     H14X     HAL2     0.900000E-01   1.00800           0
     12045 MEMB     90       POPC     H14Y     HAL2     0.900000E-01   1.00800           0
     12046 MEMB     90       POPC     C315     CTL2    -0.180000       12.0110           0
     12047 MEMB     90       POPC     H15X     HAL2     0.900000E-01   1.00800           0
     12048 MEMB     90       POPC     H15Y     HAL2     0.900000E-01   1.00800           0
     12049 MEMB     90       POPC     C316     CTL3    -0.270000       12.0110           0
     12050 MEMB     90       POPC     H16X     HAL3     0.900000E-01   1.00800           0
     12051 MEMB     90       POPC     H16Y     HAL3     0.900000E-01   1.00800           0
     12052 MEMB     90       POPC     H16Z     HAL3     0.900000E-01   1.00800           0
     12053 MEMB     91       POPS     N        NH3L    -0.300000       14.0070           0
     12054 MEMB     91       POPS     HN1      HCL      0.330000       1.00800           0
     12055 MEMB     91       POPS     HN2      HCL      0.330000       1.00800           0
     12056 MEMB     91       POPS     HN3      HCL      0.330000       1.00800           0
     12057 MEMB     91       POPS     C12      CTL1     0.210000       12.0110           0
     12058 MEMB     91       POPS     H12A     HBL      0.100000       1.00800           0
     12059 MEMB     91       POPS     C13      CCL      0.340000       12.0110           0
     12060 MEMB     91       POPS     O13A     OCL     -0.670000       15.9994           0
     12061 MEMB     91       POPS     O13B     OCL     -0.670000       15.9994           0
     12062 MEMB     91       POPS     C11      CTL2    -0.800000E-01   12.0110           0
     12063 MEMB     91       POPS     H11A     HAL2     0.900000E-01   1.00800           0
     12064 MEMB     91       POPS     H11B     HAL2     0.900000E-01   1.00800           0
     12065 MEMB     91       POPS     P        PL        1.50000       30.9740           0
     12066 MEMB     91       POPS     O13      O2L     -0.780000       15.9994           0
     12067 MEMB     91       POPS     O14      O2L     -0.780000       15.9994           0
     12068 MEMB     91       POPS     O12      OSLP    -0.570000       15.9994           0
     12069 MEMB     91       POPS     O11      OSLP    -0.570000       15.9994           0
     12070 MEMB     91       POPS     C1       CTL2    -0.800000E-01   12.0110           0
     12071 MEMB     91       POPS     HA       HAL2     0.900000E-01   1.00800           0
     12072 MEMB     91       POPS     HB       HAL2     0.900000E-01   1.00800           0
     12073 MEMB     91       POPS     C2       CTL1     0.170000       12.0110           0
     12074 MEMB     91       POPS     HS       HAL1     0.900000E-01   1.00800           0
     12075 MEMB     91       POPS     O21      OSL     -0.490000       15.9994           0
     12076 MEMB     91       POPS     C21      CL       0.900000       12.0110           0
     12077 MEMB     91       POPS     O22      OBL     -0.630000       15.9994           0
     12078 MEMB     91       POPS     C22      CTL2    -0.220000       12.0110           0
     12079 MEMB     91       POPS     H2R      HAL2     0.900000E-01   1.00800           0
     12080 MEMB     91       POPS     H2S      HAL2     0.900000E-01   1.00800           0
     12081 MEMB     91       POPS     C3       CTL2     0.800000E-01   12.0110           0
     12082 MEMB     91       POPS     HX       HAL2     0.900000E-01   1.00800           0
     12083 MEMB     91       POPS     HY       HAL2     0.900000E-01   1.00800           0
     12084 MEMB     91       POPS     O31      OSL     -0.490000       15.9994           0
     12085 MEMB     91       POPS     C31      CL       0.900000       12.0110           0
     12086 MEMB     91       POPS     O32      OBL     -0.630000       15.9994           0
     12087 MEMB     91       POPS     C32      CTL2    -0.220000       12.0110           0
     12088 MEMB     91       POPS     H2X      HAL2     0.900000E-01   1.00800           0
     12089 MEMB     91       POPS     H2Y      HAL2     0.900000E-01   1.00800           0
     12090 MEMB     91       POPS     C23      CTL2    -0.180000       12.0110           0
     12091 MEMB     91       POPS     H3R      HAL2     0.900000E-01   1.00800           0
     12092 MEMB     91       POPS     H3S      HAL2     0.900000E-01   1.00800           0
     12093 MEMB     91       POPS     C24      CTL2    -0.180000       12.0110           0
     12094 MEMB     91       POPS     H4R      HAL2     0.900000E-01   1.00800           0
     12095 MEMB     91       POPS     H4S      HAL2     0.900000E-01   1.00800           0
     12096 MEMB     91       POPS     C25      CTL2    -0.180000       12.0110           0
     12097 MEMB     91       POPS     H5R      HAL2     0.900000E-01   1.00800           0
     12098 MEMB     91       POPS     H5S      HAL2     0.900000E-01   1.00800           0
     12099 MEMB     91       POPS     C26      CTL2    -0.180000       12.0110           0
     12100 MEMB     91       POPS     H6R      HAL2     0.900000E-01   1.00800           0
     12101 MEMB     91       POPS     H6S      HAL2     0.900000E-01   1.00800           0
     12102 MEMB     91       POPS     C27      CTL2    -0.180000       12.0110           0
     12103 MEMB     91       POPS     H7R      HAL2     0.900000E-01   1.00800           0
     12104 MEMB     91       POPS     H7S      HAL2     0.900000E-01   1.00800           0
     12105 MEMB     91       POPS     C28      CTL2    -0.180000       12.0110           0
     12106 MEMB     91       POPS     H8R      HAL2     0.900000E-01   1.00800           0
     12107 MEMB     91       POPS     H8S      HAL2     0.900000E-01   1.00800           0
     12108 MEMB     91       POPS     C29      CEL1    -0.150000       12.0110           0
     12109 MEMB     91       POPS     H91      HEL1     0.150000       1.00800           0
     12110 MEMB     91       POPS     C210     CEL1    -0.150000       12.0110           0
     12111 MEMB     91       POPS     H101     HEL1     0.150000       1.00800           0
     12112 MEMB     91       POPS     C211     CTL2    -0.180000       12.0110           0
     12113 MEMB     91       POPS     H11R     HAL2     0.900000E-01   1.00800           0
     12114 MEMB     91       POPS     H11S     HAL2     0.900000E-01   1.00800           0
     12115 MEMB     91       POPS     C212     CTL2    -0.180000       12.0110           0
     12116 MEMB     91       POPS     H12R     HAL2     0.900000E-01   1.00800           0
     12117 MEMB     91       POPS     H12S     HAL2     0.900000E-01   1.00800           0
     12118 MEMB     91       POPS     C213     CTL2    -0.180000       12.0110           0
     12119 MEMB     91       POPS     H13R     HAL2     0.900000E-01   1.00800           0
     12120 MEMB     91       POPS     H13S     HAL2     0.900000E-01   1.00800           0
     12121 MEMB     91       POPS     C214     CTL2    -0.180000       12.0110           0
     12122 MEMB     91       POPS     H14R     HAL2     0.900000E-01   1.00800           0
     12123 MEMB     91       POPS     H14S     HAL2     0.900000E-01   1.00800           0
     12124 MEMB     91       POPS     C215     CTL2    -0.180000       12.0110           0
     12125 MEMB     91       POPS     H15R     HAL2     0.900000E-01   1.00800           0
     12126 MEMB     91       POPS     H15S     HAL2     0.900000E-01   1.00800           0
     12127 MEMB     91       POPS     C216     CTL2    -0.180000       12.0110           0
     12128 MEMB     91       POPS     H16R     HAL2     0.900000E-01   1.00800           0
     12129 MEMB     91       POPS     H16S     HAL2     0.900000E-01   1.00800           0
     12130 MEMB     91       POPS     C217     CTL2    -0.180000       12.0110           0
     12131 MEMB     91       POPS     H17R     HAL2     0.900000E-01   1.00800           0
     12132 MEMB     91       POPS     H17S     HAL2     0.900000E-01   1.00800           0
     12133 MEMB     91       POPS     C218     CTL3    -0.270000       12.0110           0
     12134 MEMB     91       POPS     H18R     HAL3     0.900000E-01   1.00800           0
     12135 MEMB     91       POPS     H18S     HAL3     0.900000E-01   1.00800           0
     12136 MEMB     91       POPS     H18T     HAL3     0.900000E-01   1.00800           0
     12137 MEMB     91       POPS     C33      CTL2    -0.180000       12.0110           0
     12138 MEMB     91       POPS     H3X      HAL2     0.900000E-01   1.00800           0
     12139 MEMB     91       POPS     H3Y      HAL2     0.900000E-01   1.00800           0
     12140 MEMB     91       POPS     C34      CTL2    -0.180000       12.0110           0
     12141 MEMB     91       POPS     H4X      HAL2     0.900000E-01   1.00800           0
     12142 MEMB     91       POPS     H4Y      HAL2     0.900000E-01   1.00800           0
     12143 MEMB     91       POPS     C35      CTL2    -0.180000       12.0110           0
     12144 MEMB     91       POPS     H5X      HAL2     0.900000E-01   1.00800           0
     12145 MEMB     91       POPS     H5Y      HAL2     0.900000E-01   1.00800           0
     12146 MEMB     91       POPS     C36      CTL2    -0.180000       12.0110           0
     12147 MEMB     91       POPS     H6X      HAL2     0.900000E-01   1.00800           0
     12148 MEMB     91       POPS     H6Y      HAL2     0.900000E-01   1.00800           0
     12149 MEMB     91       POPS     C37      CTL2    -0.180000       12.0110           0
     12150 MEMB     91       POPS     H7X      HAL2     0.900000E-01   1.00800           0
     12151 MEMB     91       POPS     H7Y      HAL2     0.900000E-01   1.00800           0
     12152 MEMB     91       POPS     C38      CTL2    -0.180000       12.0110           0
     12153 MEMB     91       POPS     H8X      HAL2     0.900000E-01   1.00800           0
     12154 MEMB     91       POPS     H8Y      HAL2     0.900000E-01   1.00800           0
     12155 MEMB     91       POPS     C39      CTL2    -0.180000       12.0110           0
     12156 MEMB     91       POPS     H9X      HAL2     0.900000E-01   1.00800           0
     12157 MEMB     91       POPS     H9Y      HAL2     0.900000E-01   1.00800           0
     12158 MEMB     91       POPS     C310     CTL2    -0.180000       12.0110           0
     12159 MEMB     91       POPS     H10X     HAL2     0.900000E-01   1.00800           0
     12160 MEMB     91       POPS     H10Y     HAL2     0.900000E-01   1.00800           0
     12161 MEMB     91       POPS     C311     CTL2    -0.180000       12.0110           0
     12162 MEMB     91       POPS     H11X     HAL2     0.900000E-01   1.00800           0
     12163 MEMB     91       POPS     H11Y     HAL2     0.900000E-01   1.00800           0
     12164 MEMB     91       POPS     C312     CTL2    -0.180000       12.0110           0
     12165 MEMB     91       POPS     H12X     HAL2     0.900000E-01   1.00800           0
     12166 MEMB     91       POPS     H12Y     HAL2     0.900000E-01   1.00800           0
     12167 MEMB     91       POPS     C313     CTL2    -0.180000       12.0110           0
     12168 MEMB     91       POPS     H13X     HAL2     0.900000E-01   1.00800           0
     12169 MEMB     91       POPS     H13Y     HAL2     0.900000E-01   1.00800           0
     12170 MEMB     91       POPS     C314     CTL2    -0.180000       12.0110           0
     12171 MEMB     91       POPS     H14X     HAL2     0.900000E-01   1.00800           0
     12172 MEMB     91       POPS     H14Y     HAL2     0.900000E-01   1.00800           0
     12173 MEMB     91       POPS     C315     CTL2    -0.180000       12.0110           0
     12174 MEMB     91       POPS     H15X     HAL2     0.900000E-01   1.00800           0
     12175 MEMB     91       POPS     H15Y     HAL2     0.900000E-01   1.00800           0
     12176 MEMB     91       POPS     C316     CTL3    -0.270000       12.0110           0
     12177 MEMB     91       POPS     H16X     HAL3     0.900000E-01   1.00800           0
     12178 MEMB     91       POPS     H16Y     HAL3     0.900000E-01   1.00800           0
     12179 MEMB     91       POPS     H16Z     HAL3     0.900000E-01   1.00800           0
     12180 MEMB     92       POPC     N        NTL     -0.600000       14.0070           0
     12181 MEMB     92       POPC     C12      CTL2    -0.100000       12.0110           0
     12182 MEMB     92       POPC     H12A     HL       0.250000       1.00800           0
     12183 MEMB     92       POPC     H12B     HL       0.250000       1.00800           0
     12184 MEMB     92       POPC     C13      CTL5    -0.350000       12.0110           0
     12185 MEMB     92       POPC     H13A     HL       0.250000       1.00800           0
     12186 MEMB     92       POPC     H13B     HL       0.250000       1.00800           0
     12187 MEMB     92       POPC     H13C     HL       0.250000       1.00800           0
     12188 MEMB     92       POPC     C14      CTL5    -0.350000       12.0110           0
     12189 MEMB     92       POPC     H14A     HL       0.250000       1.00800           0
     12190 MEMB     92       POPC     H14B     HL       0.250000       1.00800           0
     12191 MEMB     92       POPC     H14C     HL       0.250000       1.00800           0
     12192 MEMB     92       POPC     C15      CTL5    -0.350000       12.0110           0
     12193 MEMB     92       POPC     H15A     HL       0.250000       1.00800           0
     12194 MEMB     92       POPC     H15B     HL       0.250000       1.00800           0
     12195 MEMB     92       POPC     H15C     HL       0.250000       1.00800           0
     12196 MEMB     92       POPC     C11      CTL2    -0.800000E-01   12.0110           0
     12197 MEMB     92       POPC     H11A     HAL2     0.900000E-01   1.00800           0
     12198 MEMB     92       POPC     H11B     HAL2     0.900000E-01   1.00800           0
     12199 MEMB     92       POPC     P        PL        1.50000       30.9740           0
     12200 MEMB     92       POPC     O13      O2L     -0.780000       15.9994           0
     12201 MEMB     92       POPC     O14      O2L     -0.780000       15.9994           0
     12202 MEMB     92       POPC     O12      OSLP    -0.570000       15.9994           0
     12203 MEMB     92       POPC     O11      OSLP    -0.570000       15.9994           0
     12204 MEMB     92       POPC     C1       CTL2    -0.800000E-01   12.0110           0
     12205 MEMB     92       POPC     HA       HAL2     0.900000E-01   1.00800           0
     12206 MEMB     92       POPC     HB       HAL2     0.900000E-01   1.00800           0
     12207 MEMB     92       POPC     C2       CTL1     0.170000       12.0110           0
     12208 MEMB     92       POPC     HS       HAL1     0.900000E-01   1.00800           0
     12209 MEMB     92       POPC     O21      OSL     -0.490000       15.9994           0
     12210 MEMB     92       POPC     C21      CL       0.900000       12.0110           0
     12211 MEMB     92       POPC     O22      OBL     -0.630000       15.9994           0
     12212 MEMB     92       POPC     C22      CTL2    -0.220000       12.0110           0
     12213 MEMB     92       POPC     H2R      HAL2     0.900000E-01   1.00800           0
     12214 MEMB     92       POPC     H2S      HAL2     0.900000E-01   1.00800           0
     12215 MEMB     92       POPC     C3       CTL2     0.800000E-01   12.0110           0
     12216 MEMB     92       POPC     HX       HAL2     0.900000E-01   1.00800           0
     12217 MEMB     92       POPC     HY       HAL2     0.900000E-01   1.00800           0
     12218 MEMB     92       POPC     O31      OSL     -0.490000       15.9994           0
     12219 MEMB     92       POPC     C31      CL       0.900000       12.0110           0
     12220 MEMB     92       POPC     O32      OBL     -0.630000       15.9994           0
     12221 MEMB     92       POPC     C32      CTL2    -0.220000       12.0110           0
     12222 MEMB     92       POPC     H2X      HAL2     0.900000E-01   1.00800           0
     12223 MEMB     92       POPC     H2Y      HAL2     0.900000E-01   1.00800           0
     12224 MEMB     92       POPC     C23      CTL2    -0.180000       12.0110           0
     12225 MEMB     92       POPC     H3R      HAL2     0.900000E-01   1.00800           0
     12226 MEMB     92       POPC     H3S      HAL2     0.900000E-01   1.00800           0
     12227 MEMB     92       POPC     C24      CTL2    -0.180000       12.0110           0
     12228 MEMB     92       POPC     H4R      HAL2     0.900000E-01   1.00800           0
     12229 MEMB     92       POPC     H4S      HAL2     0.900000E-01   1.00800           0
     12230 MEMB     92       POPC     C25      CTL2    -0.180000       12.0110           0
     12231 MEMB     92       POPC     H5R      HAL2     0.900000E-01   1.00800           0
     12232 MEMB     92       POPC     H5S      HAL2     0.900000E-01   1.00800           0
     12233 MEMB     92       POPC     C26      CTL2    -0.180000       12.0110           0
     12234 MEMB     92       POPC     H6R      HAL2     0.900000E-01   1.00800           0
     12235 MEMB     92       POPC     H6S      HAL2     0.900000E-01   1.00800           0
     12236 MEMB     92       POPC     C27      CTL2    -0.180000       12.0110           0
     12237 MEMB     92       POPC     H7R      HAL2     0.900000E-01   1.00800           0
     12238 MEMB     92       POPC     H7S      HAL2     0.900000E-01   1.00800           0
     12239 MEMB     92       POPC     C28      CTL2    -0.180000       12.0110           0
     12240 MEMB     92       POPC     H8R      HAL2     0.900000E-01   1.00800           0
     12241 MEMB     92       POPC     H8S      HAL2     0.900000E-01   1.00800           0
     12242 MEMB     92       POPC     C29      CEL1    -0.150000       12.0110           0
     12243 MEMB     92       POPC     H91      HEL1     0.150000       1.00800           0
     12244 MEMB     92       POPC     C210     CEL1    -0.150000       12.0110           0
     12245 MEMB     92       POPC     H101     HEL1     0.150000       1.00800           0
     12246 MEMB     92       POPC     C211     CTL2    -0.180000       12.0110           0
     12247 MEMB     92       POPC     H11R     HAL2     0.900000E-01   1.00800           0
     12248 MEMB     92       POPC     H11S     HAL2     0.900000E-01   1.00800           0
     12249 MEMB     92       POPC     C212     CTL2    -0.180000       12.0110           0
     12250 MEMB     92       POPC     H12R     HAL2     0.900000E-01   1.00800           0
     12251 MEMB     92       POPC     H12S     HAL2     0.900000E-01   1.00800           0
     12252 MEMB     92       POPC     C213     CTL2    -0.180000       12.0110           0
     12253 MEMB     92       POPC     H13R     HAL2     0.900000E-01   1.00800           0
     12254 MEMB     92       POPC     H13S     HAL2     0.900000E-01   1.00800           0
     12255 MEMB     92       POPC     C214     CTL2    -0.180000       12.0110           0
     12256 MEMB     92       POPC     H14R     HAL2     0.900000E-01   1.00800           0
     12257 MEMB     92       POPC     H14S     HAL2     0.900000E-01   1.00800           0
     12258 MEMB     92       POPC     C215     CTL2    -0.180000       12.0110           0
     12259 MEMB     92       POPC     H15R     HAL2     0.900000E-01   1.00800           0
     12260 MEMB     92       POPC     H15S     HAL2     0.900000E-01   1.00800           0
     12261 MEMB     92       POPC     C216     CTL2    -0.180000       12.0110           0
     12262 MEMB     92       POPC     H16R     HAL2     0.900000E-01   1.00800           0
     12263 MEMB     92       POPC     H16S     HAL2     0.900000E-01   1.00800           0
     12264 MEMB     92       POPC     C217     CTL2    -0.180000       12.0110           0
     12265 MEMB     92       POPC     H17R     HAL2     0.900000E-01   1.00800           0
     12266 MEMB     92       POPC     H17S     HAL2     0.900000E-01   1.00800           0
     12267 MEMB     92       POPC     C218     CTL3    -0.270000       12.0110           0
     12268 MEMB     92       POPC     H18R     HAL3     0.900000E-01   1.00800           0
     12269 MEMB     92       POPC     H18S     HAL3     0.900000E-01   1.00800           0
     12270 MEMB     92       POPC     H18T     HAL3     0.900000E-01   1.00800           0
     12271 MEMB     92       POPC     C33      CTL2    -0.180000       12.0110           0
     12272 MEMB     92       POPC     H3X      HAL2     0.900000E-01   1.00800           0
     12273 MEMB     92       POPC     H3Y      HAL2     0.900000E-01   1.00800           0
     12274 MEMB     92       POPC     C34      CTL2    -0.180000       12.0110           0
     12275 MEMB     92       POPC     H4X      HAL2     0.900000E-01   1.00800           0
     12276 MEMB     92       POPC     H4Y      HAL2     0.900000E-01   1.00800           0
     12277 MEMB     92       POPC     C35      CTL2    -0.180000       12.0110           0
     12278 MEMB     92       POPC     H5X      HAL2     0.900000E-01   1.00800           0
     12279 MEMB     92       POPC     H5Y      HAL2     0.900000E-01   1.00800           0
     12280 MEMB     92       POPC     C36      CTL2    -0.180000       12.0110           0
     12281 MEMB     92       POPC     H6X      HAL2     0.900000E-01   1.00800           0
     12282 MEMB     92       POPC     H6Y      HAL2     0.900000E-01   1.00800           0
     12283 MEMB     92       POPC     C37      CTL2    -0.180000       12.0110           0
     12284 MEMB     92       POPC     H7X      HAL2     0.900000E-01   1.00800           0
     12285 MEMB     92       POPC     H7Y      HAL2     0.900000E-01   1.00800           0
     12286 MEMB     92       POPC     C38      CTL2    -0.180000       12.0110           0
     12287 MEMB     92       POPC     H8X      HAL2     0.900000E-01   1.00800           0
     12288 MEMB     92       POPC     H8Y      HAL2     0.900000E-01   1.00800           0
     12289 MEMB     92       POPC     C39      CTL2    -0.180000       12.0110           0
     12290 MEMB     92       POPC     H9X      HAL2     0.900000E-01   1.00800           0
     12291 MEMB     92       POPC     H9Y      HAL2     0.900000E-01   1.00800           0
     12292 MEMB     92       POPC     C310     CTL2    -0.180000       12.0110           0
     12293 MEMB     92       POPC     H10X     HAL2     0.900000E-01   1.00800           0
     12294 MEMB     92       POPC     H10Y     HAL2     0.900000E-01   1.00800           0
     12295 MEMB     92       POPC     C311     CTL2    -0.180000       12.0110           0
     12296 MEMB     92       POPC     H11X     HAL2     0.900000E-01   1.00800           0
     12297 MEMB     92       POPC     H11Y     HAL2     0.900000E-01   1.00800           0
     12298 MEMB     92       POPC     C312     CTL2    -0.180000       12.0110           0
     12299 MEMB     92       POPC     H12X     HAL2     0.900000E-01   1.00800           0
     12300 MEMB     92       POPC     H12Y     HAL2     0.900000E-01   1.00800           0
     12301 MEMB     92       POPC     C313     CTL2    -0.180000       12.0110           0
     12302 MEMB     92       POPC     H13X     HAL2     0.900000E-01   1.00800           0
     12303 MEMB     92       POPC     H13Y     HAL2     0.900000E-01   1.00800           0
     12304 MEMB     92       POPC     C314     CTL2    -0.180000       12.0110           0
     12305 MEMB     92       POPC     H14X     HAL2     0.900000E-01   1.00800           0
     12306 MEMB     92       POPC     H14Y     HAL2     0.900000E-01   1.00800           0
     12307 MEMB     92       POPC     C315     CTL2    -0.180000       12.0110           0
     12308 MEMB     92       POPC     H15X     HAL2     0.900000E-01   1.00800           0
     12309 MEMB     92       POPC     H15Y     HAL2     0.900000E-01   1.00800           0
     12310 MEMB     92       POPC     C316     CTL3    -0.270000       12.0110           0
     12311 MEMB     92       POPC     H16X     HAL3     0.900000E-01   1.00800           0
     12312 MEMB     92       POPC     H16Y     HAL3     0.900000E-01   1.00800           0
     12313 MEMB     92       POPC     H16Z     HAL3     0.900000E-01   1.00800           0
     12314 MEMB     93       POPS     N        NH3L    -0.300000       14.0070           0
     12315 MEMB     93       POPS     HN1      HCL      0.330000       1.00800           0
     12316 MEMB     93       POPS     HN2      HCL      0.330000       1.00800           0
     12317 MEMB     93       POPS     HN3      HCL      0.330000       1.00800           0
     12318 MEMB     93       POPS     C12      CTL1     0.210000       12.0110           0
     12319 MEMB     93       POPS     H12A     HBL      0.100000       1.00800           0
     12320 MEMB     93       POPS     C13      CCL      0.340000       12.0110           0
     12321 MEMB     93       POPS     O13A     OCL     -0.670000       15.9994           0
     12322 MEMB     93       POPS     O13B     OCL     -0.670000       15.9994           0
     12323 MEMB     93       POPS     C11      CTL2    -0.800000E-01   12.0110           0
     12324 MEMB     93       POPS     H11A     HAL2     0.900000E-01   1.00800           0
     12325 MEMB     93       POPS     H11B     HAL2     0.900000E-01   1.00800           0
     12326 MEMB     93       POPS     P        PL        1.50000       30.9740           0
     12327 MEMB     93       POPS     O13      O2L     -0.780000       15.9994           0
     12328 MEMB     93       POPS     O14      O2L     -0.780000       15.9994           0
     12329 MEMB     93       POPS     O12      OSLP    -0.570000       15.9994           0
     12330 MEMB     93       POPS     O11      OSLP    -0.570000       15.9994           0
     12331 MEMB     93       POPS     C1       CTL2    -0.800000E-01   12.0110           0
     12332 MEMB     93       POPS     HA       HAL2     0.900000E-01   1.00800           0
     12333 MEMB     93       POPS     HB       HAL2     0.900000E-01   1.00800           0
     12334 MEMB     93       POPS     C2       CTL1     0.170000       12.0110           0
     12335 MEMB     93       POPS     HS       HAL1     0.900000E-01   1.00800           0
     12336 MEMB     93       POPS     O21      OSL     -0.490000       15.9994           0
     12337 MEMB     93       POPS     C21      CL       0.900000       12.0110           0
     12338 MEMB     93       POPS     O22      OBL     -0.630000       15.9994           0
     12339 MEMB     93       POPS     C22      CTL2    -0.220000       12.0110           0
     12340 MEMB     93       POPS     H2R      HAL2     0.900000E-01   1.00800           0
     12341 MEMB     93       POPS     H2S      HAL2     0.900000E-01   1.00800           0
     12342 MEMB     93       POPS     C3       CTL2     0.800000E-01   12.0110           0
     12343 MEMB     93       POPS     HX       HAL2     0.900000E-01   1.00800           0
     12344 MEMB     93       POPS     HY       HAL2     0.900000E-01   1.00800           0
     12345 MEMB     93       POPS     O31      OSL     -0.490000       15.9994           0
     12346 MEMB     93       POPS     C31      CL       0.900000       12.0110           0
     12347 MEMB     93       POPS     O32      OBL     -0.630000       15.9994           0
     12348 MEMB     93       POPS     C32      CTL2    -0.220000       12.0110           0
     12349 MEMB     93       POPS     H2X      HAL2     0.900000E-01   1.00800           0
     12350 MEMB     93       POPS     H2Y      HAL2     0.900000E-01   1.00800           0
     12351 MEMB     93       POPS     C23      CTL2    -0.180000       12.0110           0
     12352 MEMB     93       POPS     H3R      HAL2     0.900000E-01   1.00800           0
     12353 MEMB     93       POPS     H3S      HAL2     0.900000E-01   1.00800           0
     12354 MEMB     93       POPS     C24      CTL2    -0.180000       12.0110           0
     12355 MEMB     93       POPS     H4R      HAL2     0.900000E-01   1.00800           0
     12356 MEMB     93       POPS     H4S      HAL2     0.900000E-01   1.00800           0
     12357 MEMB     93       POPS     C25      CTL2    -0.180000       12.0110           0
     12358 MEMB     93       POPS     H5R      HAL2     0.900000E-01   1.00800           0
     12359 MEMB     93       POPS     H5S      HAL2     0.900000E-01   1.00800           0
     12360 MEMB     93       POPS     C26      CTL2    -0.180000       12.0110           0
     12361 MEMB     93       POPS     H6R      HAL2     0.900000E-01   1.00800           0
     12362 MEMB     93       POPS     H6S      HAL2     0.900000E-01   1.00800           0
     12363 MEMB     93       POPS     C27      CTL2    -0.180000       12.0110           0
     12364 MEMB     93       POPS     H7R      HAL2     0.900000E-01   1.00800           0
     12365 MEMB     93       POPS     H7S      HAL2     0.900000E-01   1.00800           0
     12366 MEMB     93       POPS     C28      CTL2    -0.180000       12.0110           0
     12367 MEMB     93       POPS     H8R      HAL2     0.900000E-01   1.00800           0
     12368 MEMB     93       POPS     H8S      HAL2     0.900000E-01   1.00800           0
     12369 MEMB     93       POPS     C29      CEL1    -0.150000       12.0110           0
     12370 MEMB     93       POPS     H91      HEL1     0.150000       1.00800           0
     12371 MEMB     93       POPS     C210     CEL1    -0.150000       12.0110           0
     12372 MEMB     93       POPS     H101     HEL1     0.150000       1.00800           0
     12373 MEMB     93       POPS     C211     CTL2    -0.180000       12.0110           0
     12374 MEMB     93       POPS     H11R     HAL2     0.900000E-01   1.00800           0
     12375 MEMB     93       POPS     H11S     HAL2     0.900000E-01   1.00800           0
     12376 MEMB     93       POPS     C212     CTL2    -0.180000       12.0110           0
     12377 MEMB     93       POPS     H12R     HAL2     0.900000E-01   1.00800           0
     12378 MEMB     93       POPS     H12S     HAL2     0.900000E-01   1.00800           0
     12379 MEMB     93       POPS     C213     CTL2    -0.180000       12.0110           0
     12380 MEMB     93       POPS     H13R     HAL2     0.900000E-01   1.00800           0
     12381 MEMB     93       POPS     H13S     HAL2     0.900000E-01   1.00800           0
     12382 MEMB     93       POPS     C214     CTL2    -0.180000       12.0110           0
     12383 MEMB     93       POPS     H14R     HAL2     0.900000E-01   1.00800           0
     12384 MEMB     93       POPS     H14S     HAL2     0.900000E-01   1.00800           0
     12385 MEMB     93       POPS     C215     CTL2    -0.180000       12.0110           0
     12386 MEMB     93       POPS     H15R     HAL2     0.900000E-01   1.00800           0
     12387 MEMB     93       POPS     H15S     HAL2     0.900000E-01   1.00800           0
     12388 MEMB     93       POPS     C216     CTL2    -0.180000       12.0110           0
     12389 MEMB     93       POPS     H16R     HAL2     0.900000E-01   1.00800           0
     12390 MEMB     93       POPS     H16S     HAL2     0.900000E-01   1.00800           0
     12391 MEMB     93       POPS     C217     CTL2    -0.180000       12.0110           0
     12392 MEMB     93       POPS     H17R     HAL2     0.900000E-01   1.00800           0
     12393 MEMB     93       POPS     H17S     HAL2     0.900000E-01   1.00800           0
     12394 MEMB     93       POPS     C218     CTL3    -0.270000       12.0110           0
     12395 MEMB     93       POPS     H18R     HAL3     0.900000E-01   1.00800           0
     12396 MEMB     93       POPS     H18S     HAL3     0.900000E-01   1.00800           0
     12397 MEMB     93       POPS     H18T     HAL3     0.900000E-01   1.00800           0
     12398 MEMB     93       POPS     C33      CTL2    -0.180000       12.0110           0
     12399 MEMB     93       POPS     H3X      HAL2     0.900000E-01   1.00800           0
     12400 MEMB     93       POPS     H3Y      HAL2     0.900000E-01   1.00800           0
     12401 MEMB     93       POPS     C34      CTL2    -0.180000       12.0110           0
     12402 MEMB     93       POPS     H4X      HAL2     0.900000E-01   1.00800           0
     12403 MEMB     93       POPS     H4Y      HAL2     0.900000E-01   1.00800           0
     12404 MEMB     93       POPS     C35      CTL2    -0.180000       12.0110           0
     12405 MEMB     93       POPS     H5X      HAL2     0.900000E-01   1.00800           0
     12406 MEMB     93       POPS     H5Y      HAL2     0.900000E-01   1.00800           0
     12407 MEMB     93       POPS     C36      CTL2    -0.180000       12.0110           0
     12408 MEMB     93       POPS     H6X      HAL2     0.900000E-01   1.00800           0
     12409 MEMB     93       POPS     H6Y      HAL2     0.900000E-01   1.00800           0
     12410 MEMB     93       POPS     C37      CTL2    -0.180000       12.0110           0
     12411 MEMB     93       POPS     H7X      HAL2     0.900000E-01   1.00800           0
     12412 MEMB     93       POPS     H7Y      HAL2     0.900000E-01   1.00800           0
     12413 MEMB     93       POPS     C38      CTL2    -0.180000       12.0110           0
     12414 MEMB     93       POPS     H8X      HAL2     0.900000E-01   1.00800           0
     12415 MEMB     93       POPS     H8Y      HAL2     0.900000E-01   1.00800           0
     12416 MEMB     93       POPS     C39      CTL2    -0.180000       12.0110           0
     12417 MEMB     93       POPS     H9X      HAL2     0.900000E-01   1.00800           0
     12418 MEMB     93       POPS     H9Y      HAL2     0.900000E-01   1.00800           0
     12419 MEMB     93       POPS     C310     CTL2    -0.180000       12.0110           0
     12420 MEMB     93       POPS     H10X     HAL2     0.900000E-01   1.00800           0
     12421 MEMB     93       POPS     H10Y     HAL2     0.900000E-01   1.00800           0
     12422 MEMB     93       POPS     C311     CTL2    -0.180000       12.0110           0
     12423 MEMB     93       POPS     H11X     HAL2     0.900000E-01   1.00800           0
     12424 MEMB     93       POPS     H11Y     HAL2     0.900000E-01   1.00800           0
     12425 MEMB     93       POPS     C312     CTL2    -0.180000       12.0110           0
     12426 MEMB     93       POPS     H12X     HAL2     0.900000E-01   1.00800           0
     12427 MEMB     93       POPS     H12Y     HAL2     0.900000E-01   1.00800           0
     12428 MEMB     93       POPS     C313     CTL2    -0.180000       12.0110           0
     12429 MEMB     93       POPS     H13X     HAL2     0.900000E-01   1.00800           0
     12430 MEMB     93       POPS     H13Y     HAL2     0.900000E-01   1.00800           0
     12431 MEMB     93       POPS     C314     CTL2    -0.180000       12.0110           0
     12432 MEMB     93       POPS     H14X     HAL2     0.900000E-01   1.00800           0
     12433 MEMB     93       POPS     H14Y     HAL2     0.900000E-01   1.00800           0
     12434 MEMB     93       POPS     C315     CTL2    -0.180000       12.0110           0
     12435 MEMB     93       POPS     H15X     HAL2     0.900000E-01   1.00800           0
     12436 MEMB     93       POPS     H15Y     HAL2     0.900000E-01   1.00800           0
     12437 MEMB     93       POPS     C316     CTL3    -0.270000       12.0110           0
     12438 MEMB     93       POPS     H16X     HAL3     0.900000E-01   1.00800           0
     12439 MEMB     93       POPS     H16Y     HAL3     0.900000E-01   1.00800           0
     12440 MEMB     93       POPS     H16Z     HAL3     0.900000E-01   1.00800           0
     12441 MEMB     94       POPC     N        NTL     -0.600000       14.0070           0
     12442 MEMB     94       POPC     C12      CTL2    -0.100000       12.0110           0
     12443 MEMB     94       POPC     H12A     HL       0.250000       1.00800           0
     12444 MEMB     94       POPC     H12B     HL       0.250000       1.00800           0
     12445 MEMB     94       POPC     C13      CTL5    -0.350000       12.0110           0
     12446 MEMB     94       POPC     H13A     HL       0.250000       1.00800           0
     12447 MEMB     94       POPC     H13B     HL       0.250000       1.00800           0
     12448 MEMB     94       POPC     H13C     HL       0.250000       1.00800           0
     12449 MEMB     94       POPC     C14      CTL5    -0.350000       12.0110           0
     12450 MEMB     94       POPC     H14A     HL       0.250000       1.00800           0
     12451 MEMB     94       POPC     H14B     HL       0.250000       1.00800           0
     12452 MEMB     94       POPC     H14C     HL       0.250000       1.00800           0
     12453 MEMB     94       POPC     C15      CTL5    -0.350000       12.0110           0
     12454 MEMB     94       POPC     H15A     HL       0.250000       1.00800           0
     12455 MEMB     94       POPC     H15B     HL       0.250000       1.00800           0
     12456 MEMB     94       POPC     H15C     HL       0.250000       1.00800           0
     12457 MEMB     94       POPC     C11      CTL2    -0.800000E-01   12.0110           0
     12458 MEMB     94       POPC     H11A     HAL2     0.900000E-01   1.00800           0
     12459 MEMB     94       POPC     H11B     HAL2     0.900000E-01   1.00800           0
     12460 MEMB     94       POPC     P        PL        1.50000       30.9740           0
     12461 MEMB     94       POPC     O13      O2L     -0.780000       15.9994           0
     12462 MEMB     94       POPC     O14      O2L     -0.780000       15.9994           0
     12463 MEMB     94       POPC     O12      OSLP    -0.570000       15.9994           0
     12464 MEMB     94       POPC     O11      OSLP    -0.570000       15.9994           0
     12465 MEMB     94       POPC     C1       CTL2    -0.800000E-01   12.0110           0
     12466 MEMB     94       POPC     HA       HAL2     0.900000E-01   1.00800           0
     12467 MEMB     94       POPC     HB       HAL2     0.900000E-01   1.00800           0
     12468 MEMB     94       POPC     C2       CTL1     0.170000       12.0110           0
     12469 MEMB     94       POPC     HS       HAL1     0.900000E-01   1.00800           0
     12470 MEMB     94       POPC     O21      OSL     -0.490000       15.9994           0
     12471 MEMB     94       POPC     C21      CL       0.900000       12.0110           0
     12472 MEMB     94       POPC     O22      OBL     -0.630000       15.9994           0
     12473 MEMB     94       POPC     C22      CTL2    -0.220000       12.0110           0
     12474 MEMB     94       POPC     H2R      HAL2     0.900000E-01   1.00800           0
     12475 MEMB     94       POPC     H2S      HAL2     0.900000E-01   1.00800           0
     12476 MEMB     94       POPC     C3       CTL2     0.800000E-01   12.0110           0
     12477 MEMB     94       POPC     HX       HAL2     0.900000E-01   1.00800           0
     12478 MEMB     94       POPC     HY       HAL2     0.900000E-01   1.00800           0
     12479 MEMB     94       POPC     O31      OSL     -0.490000       15.9994           0
     12480 MEMB     94       POPC     C31      CL       0.900000       12.0110           0
     12481 MEMB     94       POPC     O32      OBL     -0.630000       15.9994           0
     12482 MEMB     94       POPC     C32      CTL2    -0.220000       12.0110           0
     12483 MEMB     94       POPC     H2X      HAL2     0.900000E-01   1.00800           0
     12484 MEMB     94       POPC     H2Y      HAL2     0.900000E-01   1.00800           0
     12485 MEMB     94       POPC     C23      CTL2    -0.180000       12.0110           0
     12486 MEMB     94       POPC     H3R      HAL2     0.900000E-01   1.00800           0
     12487 MEMB     94       POPC     H3S      HAL2     0.900000E-01   1.00800           0
     12488 MEMB     94       POPC     C24      CTL2    -0.180000       12.0110           0
     12489 MEMB     94       POPC     H4R      HAL2     0.900000E-01   1.00800           0
     12490 MEMB     94       POPC     H4S      HAL2     0.900000E-01   1.00800           0
     12491 MEMB     94       POPC     C25      CTL2    -0.180000       12.0110           0
     12492 MEMB     94       POPC     H5R      HAL2     0.900000E-01   1.00800           0
     12493 MEMB     94       POPC     H5S      HAL2     0.900000E-01   1.00800           0
     12494 MEMB     94       POPC     C26      CTL2    -0.180000       12.0110           0
     12495 MEMB     94       POPC     H6R      HAL2     0.900000E-01   1.00800           0
     12496 MEMB     94       POPC     H6S      HAL2     0.900000E-01   1.00800           0
     12497 MEMB     94       POPC     C27      CTL2    -0.180000       12.0110           0
     12498 MEMB     94       POPC     H7R      HAL2     0.900000E-01   1.00800           0
     12499 MEMB     94       POPC     H7S      HAL2     0.900000E-01   1.00800           0
     12500 MEMB     94       POPC     C28      CTL2    -0.180000       12.0110           0
     12501 MEMB     94       POPC     H8R      HAL2     0.900000E-01   1.00800           0
     12502 MEMB     94       POPC     H8S      HAL2     0.900000E-01   1.00800           0
     12503 MEMB     94       POPC     C29      CEL1    -0.150000       12.0110           0
     12504 MEMB     94       POPC     H91      HEL1     0.150000       1.00800           0
     12505 MEMB     94       POPC     C210     CEL1    -0.150000       12.0110           0
     12506 MEMB     94       POPC     H101     HEL1     0.150000       1.00800           0
     12507 MEMB     94       POPC     C211     CTL2    -0.180000       12.0110           0
     12508 MEMB     94       POPC     H11R     HAL2     0.900000E-01   1.00800           0
     12509 MEMB     94       POPC     H11S     HAL2     0.900000E-01   1.00800           0
     12510 MEMB     94       POPC     C212     CTL2    -0.180000       12.0110           0
     12511 MEMB     94       POPC     H12R     HAL2     0.900000E-01   1.00800           0
     12512 MEMB     94       POPC     H12S     HAL2     0.900000E-01   1.00800           0
     12513 MEMB     94       POPC     C213     CTL2    -0.180000       12.0110           0
     12514 MEMB     94       POPC     H13R     HAL2     0.900000E-01   1.00800           0
     12515 MEMB     94       POPC     H13S     HAL2     0.900000E-01   1.00800           0
     12516 MEMB     94       POPC     C214     CTL2    -0.180000       12.0110           0
     12517 MEMB     94       POPC     H14R     HAL2     0.900000E-01   1.00800           0
     12518 MEMB     94       POPC     H14S     HAL2     0.900000E-01   1.00800           0
     12519 MEMB     94       POPC     C215     CTL2    -0.180000       12.0110           0
     12520 MEMB     94       POPC     H15R     HAL2     0.900000E-01   1.00800           0
     12521 MEMB     94       POPC     H15S     HAL2     0.900000E-01   1.00800           0
     12522 MEMB     94       POPC     C216     CTL2    -0.180000       12.0110           0
     12523 MEMB     94       POPC     H16R     HAL2     0.900000E-01   1.00800           0
     12524 MEMB     94       POPC     H16S     HAL2     0.900000E-01   1.00800           0
     12525 MEMB     94       POPC     C217     CTL2    -0.180000       12.0110           0
     12526 MEMB     94       POPC     H17R     HAL2     0.900000E-01   1.00800           0
     12527 MEMB     94       POPC     H17S     HAL2     0.900000E-01   1.00800           0
     12528 MEMB     94       POPC     C218     CTL3    -0.270000       12.0110           0
     12529 MEMB     94       POPC     H18R     HAL3     0.900000E-01   1.00800           0
     12530 MEMB     94       POPC     H18S     HAL3     0.900000E-01   1.00800           0
     12531 MEMB     94       POPC     H18T     HAL3     0.900000E-01   1.00800           0
     12532 MEMB     94       POPC     C33      CTL2    -0.180000       12.0110           0
     12533 MEMB     94       POPC     H3X      HAL2     0.900000E-01   1.00800           0
     12534 MEMB     94       POPC     H3Y      HAL2     0.900000E-01   1.00800           0
     12535 MEMB     94       POPC     C34      CTL2    -0.180000       12.0110           0
     12536 MEMB     94       POPC     H4X      HAL2     0.900000E-01   1.00800           0
     12537 MEMB     94       POPC     H4Y      HAL2     0.900000E-01   1.00800           0
     12538 MEMB     94       POPC     C35      CTL2    -0.180000       12.0110           0
     12539 MEMB     94       POPC     H5X      HAL2     0.900000E-01   1.00800           0
     12540 MEMB     94       POPC     H5Y      HAL2     0.900000E-01   1.00800           0
     12541 MEMB     94       POPC     C36      CTL2    -0.180000       12.0110           0
     12542 MEMB     94       POPC     H6X      HAL2     0.900000E-01   1.00800           0
     12543 MEMB     94       POPC     H6Y      HAL2     0.900000E-01   1.00800           0
     12544 MEMB     94       POPC     C37      CTL2    -0.180000       12.0110           0
     12545 MEMB     94       POPC     H7X      HAL2     0.900000E-01   1.00800           0
     12546 MEMB     94       POPC     H7Y      HAL2     0.900000E-01   1.00800           0
     12547 MEMB     94       POPC     C38      CTL2    -0.180000       12.0110           0
     12548 MEMB     94       POPC     H8X      HAL2     0.900000E-01   1.00800           0
     12549 MEMB     94       POPC     H8Y      HAL2     0.900000E-01   1.00800           0
     12550 MEMB     94       POPC     C39      CTL2    -0.180000       12.0110           0
     12551 MEMB     94       POPC     H9X      HAL2     0.900000E-01   1.00800           0
     12552 MEMB     94       POPC     H9Y      HAL2     0.900000E-01   1.00800           0
     12553 MEMB     94       POPC     C310     CTL2    -0.180000       12.0110           0
     12554 MEMB     94       POPC     H10X     HAL2     0.900000E-01   1.00800           0
     12555 MEMB     94       POPC     H10Y     HAL2     0.900000E-01   1.00800           0
     12556 MEMB     94       POPC     C311     CTL2    -0.180000       12.0110           0
     12557 MEMB     94       POPC     H11X     HAL2     0.900000E-01   1.00800           0
     12558 MEMB     94       POPC     H11Y     HAL2     0.900000E-01   1.00800           0
     12559 MEMB     94       POPC     C312     CTL2    -0.180000       12.0110           0
     12560 MEMB     94       POPC     H12X     HAL2     0.900000E-01   1.00800           0
     12561 MEMB     94       POPC     H12Y     HAL2     0.900000E-01   1.00800           0
     12562 MEMB     94       POPC     C313     CTL2    -0.180000       12.0110           0
     12563 MEMB     94       POPC     H13X     HAL2     0.900000E-01   1.00800           0
     12564 MEMB     94       POPC     H13Y     HAL2     0.900000E-01   1.00800           0
     12565 MEMB     94       POPC     C314     CTL2    -0.180000       12.0110           0
     12566 MEMB     94       POPC     H14X     HAL2     0.900000E-01   1.00800           0
     12567 MEMB     94       POPC     H14Y     HAL2     0.900000E-01   1.00800           0
     12568 MEMB     94       POPC     C315     CTL2    -0.180000       12.0110           0
     12569 MEMB     94       POPC     H15X     HAL2     0.900000E-01   1.00800           0
     12570 MEMB     94       POPC     H15Y     HAL2     0.900000E-01   1.00800           0
     12571 MEMB     94       POPC     C316     CTL3    -0.270000       12.0110           0
     12572 MEMB     94       POPC     H16X     HAL3     0.900000E-01   1.00800           0
     12573 MEMB     94       POPC     H16Y     HAL3     0.900000E-01   1.00800           0
     12574 MEMB     94       POPC     H16Z     HAL3     0.900000E-01   1.00800           0
     12575 MEMB     95       POPC     N        NTL     -0.600000       14.0070           0
     12576 MEMB     95       POPC     C12      CTL2    -0.100000       12.0110           0
     12577 MEMB     95       POPC     H12A     HL       0.250000       1.00800           0
     12578 MEMB     95       POPC     H12B     HL       0.250000       1.00800           0
     12579 MEMB     95       POPC     C13      CTL5    -0.350000       12.0110           0
     12580 MEMB     95       POPC     H13A     HL       0.250000       1.00800           0
     12581 MEMB     95       POPC     H13B     HL       0.250000       1.00800           0
     12582 MEMB     95       POPC     H13C     HL       0.250000       1.00800           0
     12583 MEMB     95       POPC     C14      CTL5    -0.350000       12.0110           0
     12584 MEMB     95       POPC     H14A     HL       0.250000       1.00800           0
     12585 MEMB     95       POPC     H14B     HL       0.250000       1.00800           0
     12586 MEMB     95       POPC     H14C     HL       0.250000       1.00800           0
     12587 MEMB     95       POPC     C15      CTL5    -0.350000       12.0110           0
     12588 MEMB     95       POPC     H15A     HL       0.250000       1.00800           0
     12589 MEMB     95       POPC     H15B     HL       0.250000       1.00800           0
     12590 MEMB     95       POPC     H15C     HL       0.250000       1.00800           0
     12591 MEMB     95       POPC     C11      CTL2    -0.800000E-01   12.0110           0
     12592 MEMB     95       POPC     H11A     HAL2     0.900000E-01   1.00800           0
     12593 MEMB     95       POPC     H11B     HAL2     0.900000E-01   1.00800           0
     12594 MEMB     95       POPC     P        PL        1.50000       30.9740           0
     12595 MEMB     95       POPC     O13      O2L     -0.780000       15.9994           0
     12596 MEMB     95       POPC     O14      O2L     -0.780000       15.9994           0
     12597 MEMB     95       POPC     O12      OSLP    -0.570000       15.9994           0
     12598 MEMB     95       POPC     O11      OSLP    -0.570000       15.9994           0
     12599 MEMB     95       POPC     C1       CTL2    -0.800000E-01   12.0110           0
     12600 MEMB     95       POPC     HA       HAL2     0.900000E-01   1.00800           0
     12601 MEMB     95       POPC     HB       HAL2     0.900000E-01   1.00800           0
     12602 MEMB     95       POPC     C2       CTL1     0.170000       12.0110           0
     12603 MEMB     95       POPC     HS       HAL1     0.900000E-01   1.00800           0
     12604 MEMB     95       POPC     O21      OSL     -0.490000       15.9994           0
     12605 MEMB     95       POPC     C21      CL       0.900000       12.0110           0
     12606 MEMB     95       POPC     O22      OBL     -0.630000       15.9994           0
     12607 MEMB     95       POPC     C22      CTL2    -0.220000       12.0110           0
     12608 MEMB     95       POPC     H2R      HAL2     0.900000E-01   1.00800           0
     12609 MEMB     95       POPC     H2S      HAL2     0.900000E-01   1.00800           0
     12610 MEMB     95       POPC     C3       CTL2     0.800000E-01   12.0110           0
     12611 MEMB     95       POPC     HX       HAL2     0.900000E-01   1.00800           0
     12612 MEMB     95       POPC     HY       HAL2     0.900000E-01   1.00800           0
     12613 MEMB     95       POPC     O31      OSL     -0.490000       15.9994           0
     12614 MEMB     95       POPC     C31      CL       0.900000       12.0110           0
     12615 MEMB     95       POPC     O32      OBL     -0.630000       15.9994           0
     12616 MEMB     95       POPC     C32      CTL2    -0.220000       12.0110           0
     12617 MEMB     95       POPC     H2X      HAL2     0.900000E-01   1.00800           0
     12618 MEMB     95       POPC     H2Y      HAL2     0.900000E-01   1.00800           0
     12619 MEMB     95       POPC     C23      CTL2    -0.180000       12.0110           0
     12620 MEMB     95       POPC     H3R      HAL2     0.900000E-01   1.00800           0
     12621 MEMB     95       POPC     H3S      HAL2     0.900000E-01   1.00800           0
     12622 MEMB     95       POPC     C24      CTL2    -0.180000       12.0110           0
     12623 MEMB     95       POPC     H4R      HAL2     0.900000E-01   1.00800           0
     12624 MEMB     95       POPC     H4S      HAL2     0.900000E-01   1.00800           0
     12625 MEMB     95       POPC     C25      CTL2    -0.180000       12.0110           0
     12626 MEMB     95       POPC     H5R      HAL2     0.900000E-01   1.00800           0
     12627 MEMB     95       POPC     H5S      HAL2     0.900000E-01   1.00800           0
     12628 MEMB     95       POPC     C26      CTL2    -0.180000       12.0110           0
     12629 MEMB     95       POPC     H6R      HAL2     0.900000E-01   1.00800           0
     12630 MEMB     95       POPC     H6S      HAL2     0.900000E-01   1.00800           0
     12631 MEMB     95       POPC     C27      CTL2    -0.180000       12.0110           0
     12632 MEMB     95       POPC     H7R      HAL2     0.900000E-01   1.00800           0
     12633 MEMB     95       POPC     H7S      HAL2     0.900000E-01   1.00800           0
     12634 MEMB     95       POPC     C28      CTL2    -0.180000       12.0110           0
     12635 MEMB     95       POPC     H8R      HAL2     0.900000E-01   1.00800           0
     12636 MEMB     95       POPC     H8S      HAL2     0.900000E-01   1.00800           0
     12637 MEMB     95       POPC     C29      CEL1    -0.150000       12.0110           0
     12638 MEMB     95       POPC     H91      HEL1     0.150000       1.00800           0
     12639 MEMB     95       POPC     C210     CEL1    -0.150000       12.0110           0
     12640 MEMB     95       POPC     H101     HEL1     0.150000       1.00800           0
     12641 MEMB     95       POPC     C211     CTL2    -0.180000       12.0110           0
     12642 MEMB     95       POPC     H11R     HAL2     0.900000E-01   1.00800           0
     12643 MEMB     95       POPC     H11S     HAL2     0.900000E-01   1.00800           0
     12644 MEMB     95       POPC     C212     CTL2    -0.180000       12.0110           0
     12645 MEMB     95       POPC     H12R     HAL2     0.900000E-01   1.00800           0
     12646 MEMB     95       POPC     H12S     HAL2     0.900000E-01   1.00800           0
     12647 MEMB     95       POPC     C213     CTL2    -0.180000       12.0110           0
     12648 MEMB     95       POPC     H13R     HAL2     0.900000E-01   1.00800           0
     12649 MEMB     95       POPC     H13S     HAL2     0.900000E-01   1.00800           0
     12650 MEMB     95       POPC     C214     CTL2    -0.180000       12.0110           0
     12651 MEMB     95       POPC     H14R     HAL2     0.900000E-01   1.00800           0
     12652 MEMB     95       POPC     H14S     HAL2     0.900000E-01   1.00800           0
     12653 MEMB     95       POPC     C215     CTL2    -0.180000       12.0110           0
     12654 MEMB     95       POPC     H15R     HAL2     0.900000E-01   1.00800           0
     12655 MEMB     95       POPC     H15S     HAL2     0.900000E-01   1.00800           0
     12656 MEMB     95       POPC     C216     CTL2    -0.180000       12.0110           0
     12657 MEMB     95       POPC     H16R     HAL2     0.900000E-01   1.00800           0
     12658 MEMB     95       POPC     H16S     HAL2     0.900000E-01   1.00800           0
     12659 MEMB     95       POPC     C217     CTL2    -0.180000       12.0110           0
     12660 MEMB     95       POPC     H17R     HAL2     0.900000E-01   1.00800           0
     12661 MEMB     95       POPC     H17S     HAL2     0.900000E-01   1.00800           0
     12662 MEMB     95       POPC     C218     CTL3    -0.270000       12.0110           0
     12663 MEMB     95       POPC     H18R     HAL3     0.900000E-01   1.00800           0
     12664 MEMB     95       POPC     H18S     HAL3     0.900000E-01   1.00800           0
     12665 MEMB     95       POPC     H18T     HAL3     0.900000E-01   1.00800           0
     12666 MEMB     95       POPC     C33      CTL2    -0.180000       12.0110           0
     12667 MEMB     95       POPC     H3X      HAL2     0.900000E-01   1.00800           0
     12668 MEMB     95       POPC     H3Y      HAL2     0.900000E-01   1.00800           0
     12669 MEMB     95       POPC     C34      CTL2    -0.180000       12.0110           0
     12670 MEMB     95       POPC     H4X      HAL2     0.900000E-01   1.00800           0
     12671 MEMB     95       POPC     H4Y      HAL2     0.900000E-01   1.00800           0
     12672 MEMB     95       POPC     C35      CTL2    -0.180000       12.0110           0
     12673 MEMB     95       POPC     H5X      HAL2     0.900000E-01   1.00800           0
     12674 MEMB     95       POPC     H5Y      HAL2     0.900000E-01   1.00800           0
     12675 MEMB     95       POPC     C36      CTL2    -0.180000       12.0110           0
     12676 MEMB     95       POPC     H6X      HAL2     0.900000E-01   1.00800           0
     12677 MEMB     95       POPC     H6Y      HAL2     0.900000E-01   1.00800           0
     12678 MEMB     95       POPC     C37      CTL2    -0.180000       12.0110           0
     12679 MEMB     95       POPC     H7X      HAL2     0.900000E-01   1.00800           0
     12680 MEMB     95       POPC     H7Y      HAL2     0.900000E-01   1.00800           0
     12681 MEMB     95       POPC     C38      CTL2    -0.180000       12.0110           0
     12682 MEMB     95       POPC     H8X      HAL2     0.900000E-01   1.00800           0
     12683 MEMB     95       POPC     H8Y      HAL2     0.900000E-01   1.00800           0
     12684 MEMB     95       POPC     C39      CTL2    -0.180000       12.0110           0
     12685 MEMB     95       POPC     H9X      HAL2     0.900000E-01   1.00800           0
     12686 MEMB     95       POPC     H9Y      HAL2     0.900000E-01   1.00800           0
     12687 MEMB     95       POPC     C310     CTL2    -0.180000       12.0110           0
     12688 MEMB     95       POPC     H10X     HAL2     0.900000E-01   1.00800           0
     12689 MEMB     95       POPC     H10Y     HAL2     0.900000E-01   1.00800           0
     12690 MEMB     95       POPC     C311     CTL2    -0.180000       12.0110           0
     12691 MEMB     95       POPC     H11X     HAL2     0.900000E-01   1.00800           0
     12692 MEMB     95       POPC     H11Y     HAL2     0.900000E-01   1.00800           0
     12693 MEMB     95       POPC     C312     CTL2    -0.180000       12.0110           0
     12694 MEMB     95       POPC     H12X     HAL2     0.900000E-01   1.00800           0
     12695 MEMB     95       POPC     H12Y     HAL2     0.900000E-01   1.00800           0
     12696 MEMB     95       POPC     C313     CTL2    -0.180000       12.0110           0
     12697 MEMB     95       POPC     H13X     HAL2     0.900000E-01   1.00800           0
     12698 MEMB     95       POPC     H13Y     HAL2     0.900000E-01   1.00800           0
     12699 MEMB     95       POPC     C314     CTL2    -0.180000       12.0110           0
     12700 MEMB     95       POPC     H14X     HAL2     0.900000E-01   1.00800           0
     12701 MEMB     95       POPC     H14Y     HAL2     0.900000E-01   1.00800           0
     12702 MEMB     95       POPC     C315     CTL2    -0.180000       12.0110           0
     12703 MEMB     95       POPC     H15X     HAL2     0.900000E-01   1.00800           0
     12704 MEMB     95       POPC     H15Y     HAL2     0.900000E-01   1.00800           0
     12705 MEMB     95       POPC     C316     CTL3    -0.270000       12.0110           0
     12706 MEMB     95       POPC     H16X     HAL3     0.900000E-01   1.00800           0
     12707 MEMB     95       POPC     H16Y     HAL3     0.900000E-01   1.00800           0
     12708 MEMB     95       POPC     H16Z     HAL3     0.900000E-01   1.00800           0
     12709 MEMB     96       POPC     N        NTL     -0.600000       14.0070           0
     12710 MEMB     96       POPC     C12      CTL2    -0.100000       12.0110           0
     12711 MEMB     96       POPC     H12A     HL       0.250000       1.00800           0
     12712 MEMB     96       POPC     H12B     HL       0.250000       1.00800           0
     12713 MEMB     96       POPC     C13      CTL5    -0.350000       12.0110           0
     12714 MEMB     96       POPC     H13A     HL       0.250000       1.00800           0
     12715 MEMB     96       POPC     H13B     HL       0.250000       1.00800           0
     12716 MEMB     96       POPC     H13C     HL       0.250000       1.00800           0
     12717 MEMB     96       POPC     C14      CTL5    -0.350000       12.0110           0
     12718 MEMB     96       POPC     H14A     HL       0.250000       1.00800           0
     12719 MEMB     96       POPC     H14B     HL       0.250000       1.00800           0
     12720 MEMB     96       POPC     H14C     HL       0.250000       1.00800           0
     12721 MEMB     96       POPC     C15      CTL5    -0.350000       12.0110           0
     12722 MEMB     96       POPC     H15A     HL       0.250000       1.00800           0
     12723 MEMB     96       POPC     H15B     HL       0.250000       1.00800           0
     12724 MEMB     96       POPC     H15C     HL       0.250000       1.00800           0
     12725 MEMB     96       POPC     C11      CTL2    -0.800000E-01   12.0110           0
     12726 MEMB     96       POPC     H11A     HAL2     0.900000E-01   1.00800           0
     12727 MEMB     96       POPC     H11B     HAL2     0.900000E-01   1.00800           0
     12728 MEMB     96       POPC     P        PL        1.50000       30.9740           0
     12729 MEMB     96       POPC     O13      O2L     -0.780000       15.9994           0
     12730 MEMB     96       POPC     O14      O2L     -0.780000       15.9994           0
     12731 MEMB     96       POPC     O12      OSLP    -0.570000       15.9994           0
     12732 MEMB     96       POPC     O11      OSLP    -0.570000       15.9994           0
     12733 MEMB     96       POPC     C1       CTL2    -0.800000E-01   12.0110           0
     12734 MEMB     96       POPC     HA       HAL2     0.900000E-01   1.00800           0
     12735 MEMB     96       POPC     HB       HAL2     0.900000E-01   1.00800           0
     12736 MEMB     96       POPC     C2       CTL1     0.170000       12.0110           0
     12737 MEMB     96       POPC     HS       HAL1     0.900000E-01   1.00800           0
     12738 MEMB     96       POPC     O21      OSL     -0.490000       15.9994           0
     12739 MEMB     96       POPC     C21      CL       0.900000       12.0110           0
     12740 MEMB     96       POPC     O22      OBL     -0.630000       15.9994           0
     12741 MEMB     96       POPC     C22      CTL2    -0.220000       12.0110           0
     12742 MEMB     96       POPC     H2R      HAL2     0.900000E-01   1.00800           0
     12743 MEMB     96       POPC     H2S      HAL2     0.900000E-01   1.00800           0
     12744 MEMB     96       POPC     C3       CTL2     0.800000E-01   12.0110           0
     12745 MEMB     96       POPC     HX       HAL2     0.900000E-01   1.00800           0
     12746 MEMB     96       POPC     HY       HAL2     0.900000E-01   1.00800           0
     12747 MEMB     96       POPC     O31      OSL     -0.490000       15.9994           0
     12748 MEMB     96       POPC     C31      CL       0.900000       12.0110           0
     12749 MEMB     96       POPC     O32      OBL     -0.630000       15.9994           0
     12750 MEMB     96       POPC     C32      CTL2    -0.220000       12.0110           0
     12751 MEMB     96       POPC     H2X      HAL2     0.900000E-01   1.00800           0
     12752 MEMB     96       POPC     H2Y      HAL2     0.900000E-01   1.00800           0
     12753 MEMB     96       POPC     C23      CTL2    -0.180000       12.0110           0
     12754 MEMB     96       POPC     H3R      HAL2     0.900000E-01   1.00800           0
     12755 MEMB     96       POPC     H3S      HAL2     0.900000E-01   1.00800           0
     12756 MEMB     96       POPC     C24      CTL2    -0.180000       12.0110           0
     12757 MEMB     96       POPC     H4R      HAL2     0.900000E-01   1.00800           0
     12758 MEMB     96       POPC     H4S      HAL2     0.900000E-01   1.00800           0
     12759 MEMB     96       POPC     C25      CTL2    -0.180000       12.0110           0
     12760 MEMB     96       POPC     H5R      HAL2     0.900000E-01   1.00800           0
     12761 MEMB     96       POPC     H5S      HAL2     0.900000E-01   1.00800           0
     12762 MEMB     96       POPC     C26      CTL2    -0.180000       12.0110           0
     12763 MEMB     96       POPC     H6R      HAL2     0.900000E-01   1.00800           0
     12764 MEMB     96       POPC     H6S      HAL2     0.900000E-01   1.00800           0
     12765 MEMB     96       POPC     C27      CTL2    -0.180000       12.0110           0
     12766 MEMB     96       POPC     H7R      HAL2     0.900000E-01   1.00800           0
     12767 MEMB     96       POPC     H7S      HAL2     0.900000E-01   1.00800           0
     12768 MEMB     96       POPC     C28      CTL2    -0.180000       12.0110           0
     12769 MEMB     96       POPC     H8R      HAL2     0.900000E-01   1.00800           0
     12770 MEMB     96       POPC     H8S      HAL2     0.900000E-01   1.00800           0
     12771 MEMB     96       POPC     C29      CEL1    -0.150000       12.0110           0
     12772 MEMB     96       POPC     H91      HEL1     0.150000       1.00800           0
     12773 MEMB     96       POPC     C210     CEL1    -0.150000       12.0110           0
     12774 MEMB     96       POPC     H101     HEL1     0.150000       1.00800           0
     12775 MEMB     96       POPC     C211     CTL2    -0.180000       12.0110           0
     12776 MEMB     96       POPC     H11R     HAL2     0.900000E-01   1.00800           0
     12777 MEMB     96       POPC     H11S     HAL2     0.900000E-01   1.00800           0
     12778 MEMB     96       POPC     C212     CTL2    -0.180000       12.0110           0
     12779 MEMB     96       POPC     H12R     HAL2     0.900000E-01   1.00800           0
     12780 MEMB     96       POPC     H12S     HAL2     0.900000E-01   1.00800           0
     12781 MEMB     96       POPC     C213     CTL2    -0.180000       12.0110           0
     12782 MEMB     96       POPC     H13R     HAL2     0.900000E-01   1.00800           0
     12783 MEMB     96       POPC     H13S     HAL2     0.900000E-01   1.00800           0
     12784 MEMB     96       POPC     C214     CTL2    -0.180000       12.0110           0
     12785 MEMB     96       POPC     H14R     HAL2     0.900000E-01   1.00800           0
     12786 MEMB     96       POPC     H14S     HAL2     0.900000E-01   1.00800           0
     12787 MEMB     96       POPC     C215     CTL2    -0.180000       12.0110           0
     12788 MEMB     96       POPC     H15R     HAL2     0.900000E-01   1.00800           0
     12789 MEMB     96       POPC     H15S     HAL2     0.900000E-01   1.00800           0
     12790 MEMB     96       POPC     C216     CTL2    -0.180000       12.0110           0
     12791 MEMB     96       POPC     H16R     HAL2     0.900000E-01   1.00800           0
     12792 MEMB     96       POPC     H16S     HAL2     0.900000E-01   1.00800           0
     12793 MEMB     96       POPC     C217     CTL2    -0.180000       12.0110           0
     12794 MEMB     96       POPC     H17R     HAL2     0.900000E-01   1.00800           0
     12795 MEMB     96       POPC     H17S     HAL2     0.900000E-01   1.00800           0
     12796 MEMB     96       POPC     C218     CTL3    -0.270000       12.0110           0
     12797 MEMB     96       POPC     H18R     HAL3     0.900000E-01   1.00800           0
     12798 MEMB     96       POPC     H18S     HAL3     0.900000E-01   1.00800           0
     12799 MEMB     96       POPC     H18T     HAL3     0.900000E-01   1.00800           0
     12800 MEMB     96       POPC     C33      CTL2    -0.180000       12.0110           0
     12801 MEMB     96       POPC     H3X      HAL2     0.900000E-01   1.00800           0
     12802 MEMB     96       POPC     H3Y      HAL2     0.900000E-01   1.00800           0
     12803 MEMB     96       POPC     C34      CTL2    -0.180000       12.0110           0
     12804 MEMB     96       POPC     H4X      HAL2     0.900000E-01   1.00800           0
     12805 MEMB     96       POPC     H4Y      HAL2     0.900000E-01   1.00800           0
     12806 MEMB     96       POPC     C35      CTL2    -0.180000       12.0110           0
     12807 MEMB     96       POPC     H5X      HAL2     0.900000E-01   1.00800           0
     12808 MEMB     96       POPC     H5Y      HAL2     0.900000E-01   1.00800           0
     12809 MEMB     96       POPC     C36      CTL2    -0.180000       12.0110           0
     12810 MEMB     96       POPC     H6X      HAL2     0.900000E-01   1.00800           0
     12811 MEMB     96       POPC     H6Y      HAL2     0.900000E-01   1.00800           0
     12812 MEMB     96       POPC     C37      CTL2    -0.180000       12.0110           0
     12813 MEMB     96       POPC     H7X      HAL2     0.900000E-01   1.00800           0
     12814 MEMB     96       POPC     H7Y      HAL2     0.900000E-01   1.00800           0
     12815 MEMB     96       POPC     C38      CTL2    -0.180000       12.0110           0
     12816 MEMB     96       POPC     H8X      HAL2     0.900000E-01   1.00800           0
     12817 MEMB     96       POPC     H8Y      HAL2     0.900000E-01   1.00800           0
     12818 MEMB     96       POPC     C39      CTL2    -0.180000       12.0110           0
     12819 MEMB     96       POPC     H9X      HAL2     0.900000E-01   1.00800           0
     12820 MEMB     96       POPC     H9Y      HAL2     0.900000E-01   1.00800           0
     12821 MEMB     96       POPC     C310     CTL2    -0.180000       12.0110           0
     12822 MEMB     96       POPC     H10X     HAL2     0.900000E-01   1.00800           0
     12823 MEMB     96       POPC     H10Y     HAL2     0.900000E-01   1.00800           0
     12824 MEMB     96       POPC     C311     CTL2    -0.180000       12.0110           0
     12825 MEMB     96       POPC     H11X     HAL2     0.900000E-01   1.00800           0
     12826 MEMB     96       POPC     H11Y     HAL2     0.900000E-01   1.00800           0
     12827 MEMB     96       POPC     C312     CTL2    -0.180000       12.0110           0
     12828 MEMB     96       POPC     H12X     HAL2     0.900000E-01   1.00800           0
     12829 MEMB     96       POPC     H12Y     HAL2     0.900000E-01   1.00800           0
     12830 MEMB     96       POPC     C313     CTL2    -0.180000       12.0110           0
     12831 MEMB     96       POPC     H13X     HAL2     0.900000E-01   1.00800           0
     12832 MEMB     96       POPC     H13Y     HAL2     0.900000E-01   1.00800           0
     12833 MEMB     96       POPC     C314     CTL2    -0.180000       12.0110           0
     12834 MEMB     96       POPC     H14X     HAL2     0.900000E-01   1.00800           0
     12835 MEMB     96       POPC     H14Y     HAL2     0.900000E-01   1.00800           0
     12836 MEMB     96       POPC     C315     CTL2    -0.180000       12.0110           0
     12837 MEMB     96       POPC     H15X     HAL2     0.900000E-01   1.00800           0
     12838 MEMB     96       POPC     H15Y     HAL2     0.900000E-01   1.00800           0
     12839 MEMB     96       POPC     C316     CTL3    -0.270000       12.0110           0
     12840 MEMB     96       POPC     H16X     HAL3     0.900000E-01   1.00800           0
     12841 MEMB     96       POPC     H16Y     HAL3     0.900000E-01   1.00800           0
     12842 MEMB     96       POPC     H16Z     HAL3     0.900000E-01   1.00800           0
     12843 MEMB     97       POPC     N        NTL     -0.600000       14.0070           0
     12844 MEMB     97       POPC     C12      CTL2    -0.100000       12.0110           0
     12845 MEMB     97       POPC     H12A     HL       0.250000       1.00800           0
     12846 MEMB     97       POPC     H12B     HL       0.250000       1.00800           0
     12847 MEMB     97       POPC     C13      CTL5    -0.350000       12.0110           0
     12848 MEMB     97       POPC     H13A     HL       0.250000       1.00800           0
     12849 MEMB     97       POPC     H13B     HL       0.250000       1.00800           0
     12850 MEMB     97       POPC     H13C     HL       0.250000       1.00800           0
     12851 MEMB     97       POPC     C14      CTL5    -0.350000       12.0110           0
     12852 MEMB     97       POPC     H14A     HL       0.250000       1.00800           0
     12853 MEMB     97       POPC     H14B     HL       0.250000       1.00800           0
     12854 MEMB     97       POPC     H14C     HL       0.250000       1.00800           0
     12855 MEMB     97       POPC     C15      CTL5    -0.350000       12.0110           0
     12856 MEMB     97       POPC     H15A     HL       0.250000       1.00800           0
     12857 MEMB     97       POPC     H15B     HL       0.250000       1.00800           0
     12858 MEMB     97       POPC     H15C     HL       0.250000       1.00800           0
     12859 MEMB     97       POPC     C11      CTL2    -0.800000E-01   12.0110           0
     12860 MEMB     97       POPC     H11A     HAL2     0.900000E-01   1.00800           0
     12861 MEMB     97       POPC     H11B     HAL2     0.900000E-01   1.00800           0
     12862 MEMB     97       POPC     P        PL        1.50000       30.9740           0
     12863 MEMB     97       POPC     O13      O2L     -0.780000       15.9994           0
     12864 MEMB     97       POPC     O14      O2L     -0.780000       15.9994           0
     12865 MEMB     97       POPC     O12      OSLP    -0.570000       15.9994           0
     12866 MEMB     97       POPC     O11      OSLP    -0.570000       15.9994           0
     12867 MEMB     97       POPC     C1       CTL2    -0.800000E-01   12.0110           0
     12868 MEMB     97       POPC     HA       HAL2     0.900000E-01   1.00800           0
     12869 MEMB     97       POPC     HB       HAL2     0.900000E-01   1.00800           0
     12870 MEMB     97       POPC     C2       CTL1     0.170000       12.0110           0
     12871 MEMB     97       POPC     HS       HAL1     0.900000E-01   1.00800           0
     12872 MEMB     97       POPC     O21      OSL     -0.490000       15.9994           0
     12873 MEMB     97       POPC     C21      CL       0.900000       12.0110           0
     12874 MEMB     97       POPC     O22      OBL     -0.630000       15.9994           0
     12875 MEMB     97       POPC     C22      CTL2    -0.220000       12.0110           0
     12876 MEMB     97       POPC     H2R      HAL2     0.900000E-01   1.00800           0
     12877 MEMB     97       POPC     H2S      HAL2     0.900000E-01   1.00800           0
     12878 MEMB     97       POPC     C3       CTL2     0.800000E-01   12.0110           0
     12879 MEMB     97       POPC     HX       HAL2     0.900000E-01   1.00800           0
     12880 MEMB     97       POPC     HY       HAL2     0.900000E-01   1.00800           0
     12881 MEMB     97       POPC     O31      OSL     -0.490000       15.9994           0
     12882 MEMB     97       POPC     C31      CL       0.900000       12.0110           0
     12883 MEMB     97       POPC     O32      OBL     -0.630000       15.9994           0
     12884 MEMB     97       POPC     C32      CTL2    -0.220000       12.0110           0
     12885 MEMB     97       POPC     H2X      HAL2     0.900000E-01   1.00800           0
     12886 MEMB     97       POPC     H2Y      HAL2     0.900000E-01   1.00800           0
     12887 MEMB     97       POPC     C23      CTL2    -0.180000       12.0110           0
     12888 MEMB     97       POPC     H3R      HAL2     0.900000E-01   1.00800           0
     12889 MEMB     97       POPC     H3S      HAL2     0.900000E-01   1.00800           0
     12890 MEMB     97       POPC     C24      CTL2    -0.180000       12.0110           0
     12891 MEMB     97       POPC     H4R      HAL2     0.900000E-01   1.00800           0
     12892 MEMB     97       POPC     H4S      HAL2     0.900000E-01   1.00800           0
     12893 MEMB     97       POPC     C25      CTL2    -0.180000       12.0110           0
     12894 MEMB     97       POPC     H5R      HAL2     0.900000E-01   1.00800           0
     12895 MEMB     97       POPC     H5S      HAL2     0.900000E-01   1.00800           0
     12896 MEMB     97       POPC     C26      CTL2    -0.180000       12.0110           0
     12897 MEMB     97       POPC     H6R      HAL2     0.900000E-01   1.00800           0
     12898 MEMB     97       POPC     H6S      HAL2     0.900000E-01   1.00800           0
     12899 MEMB     97       POPC     C27      CTL2    -0.180000       12.0110           0
     12900 MEMB     97       POPC     H7R      HAL2     0.900000E-01   1.00800           0
     12901 MEMB     97       POPC     H7S      HAL2     0.900000E-01   1.00800           0
     12902 MEMB     97       POPC     C28      CTL2    -0.180000       12.0110           0
     12903 MEMB     97       POPC     H8R      HAL2     0.900000E-01   1.00800           0
     12904 MEMB     97       POPC     H8S      HAL2     0.900000E-01   1.00800           0
     12905 MEMB     97       POPC     C29      CEL1    -0.150000       12.0110           0
     12906 MEMB     97       POPC     H91      HEL1     0.150000       1.00800           0
     12907 MEMB     97       POPC     C210     CEL1    -0.150000       12.0110           0
     12908 MEMB     97       POPC     H101     HEL1     0.150000       1.00800           0
     12909 MEMB     97       POPC     C211     CTL2    -0.180000       12.0110           0
     12910 MEMB     97       POPC     H11R     HAL2     0.900000E-01   1.00800           0
     12911 MEMB     97       POPC     H11S     HAL2     0.900000E-01   1.00800           0
     12912 MEMB     97       POPC     C212     CTL2    -0.180000       12.0110           0
     12913 MEMB     97       POPC     H12R     HAL2     0.900000E-01   1.00800           0
     12914 MEMB     97       POPC     H12S     HAL2     0.900000E-01   1.00800           0
     12915 MEMB     97       POPC     C213     CTL2    -0.180000       12.0110           0
     12916 MEMB     97       POPC     H13R     HAL2     0.900000E-01   1.00800           0
     12917 MEMB     97       POPC     H13S     HAL2     0.900000E-01   1.00800           0
     12918 MEMB     97       POPC     C214     CTL2    -0.180000       12.0110           0
     12919 MEMB     97       POPC     H14R     HAL2     0.900000E-01   1.00800           0
     12920 MEMB     97       POPC     H14S     HAL2     0.900000E-01   1.00800           0
     12921 MEMB     97       POPC     C215     CTL2    -0.180000       12.0110           0
     12922 MEMB     97       POPC     H15R     HAL2     0.900000E-01   1.00800           0
     12923 MEMB     97       POPC     H15S     HAL2     0.900000E-01   1.00800           0
     12924 MEMB     97       POPC     C216     CTL2    -0.180000       12.0110           0
     12925 MEMB     97       POPC     H16R     HAL2     0.900000E-01   1.00800           0
     12926 MEMB     97       POPC     H16S     HAL2     0.900000E-01   1.00800           0
     12927 MEMB     97       POPC     C217     CTL2    -0.180000       12.0110           0
     12928 MEMB     97       POPC     H17R     HAL2     0.900000E-01   1.00800           0
     12929 MEMB     97       POPC     H17S     HAL2     0.900000E-01   1.00800           0
     12930 MEMB     97       POPC     C218     CTL3    -0.270000       12.0110           0
     12931 MEMB     97       POPC     H18R     HAL3     0.900000E-01   1.00800           0
     12932 MEMB     97       POPC     H18S     HAL3     0.900000E-01   1.00800           0
     12933 MEMB     97       POPC     H18T     HAL3     0.900000E-01   1.00800           0
     12934 MEMB     97       POPC     C33      CTL2    -0.180000       12.0110           0
     12935 MEMB     97       POPC     H3X      HAL2     0.900000E-01   1.00800           0
     12936 MEMB     97       POPC     H3Y      HAL2     0.900000E-01   1.00800           0
     12937 MEMB     97       POPC     C34      CTL2    -0.180000       12.0110           0
     12938 MEMB     97       POPC     H4X      HAL2     0.900000E-01   1.00800           0
     12939 MEMB     97       POPC     H4Y      HAL2     0.900000E-01   1.00800           0
     12940 MEMB     97       POPC     C35      CTL2    -0.180000       12.0110           0
     12941 MEMB     97       POPC     H5X      HAL2     0.900000E-01   1.00800           0
     12942 MEMB     97       POPC     H5Y      HAL2     0.900000E-01   1.00800           0
     12943 MEMB     97       POPC     C36      CTL2    -0.180000       12.0110           0
     12944 MEMB     97       POPC     H6X      HAL2     0.900000E-01   1.00800           0
     12945 MEMB     97       POPC     H6Y      HAL2     0.900000E-01   1.00800           0
     12946 MEMB     97       POPC     C37      CTL2    -0.180000       12.0110           0
     12947 MEMB     97       POPC     H7X      HAL2     0.900000E-01   1.00800           0
     12948 MEMB     97       POPC     H7Y      HAL2     0.900000E-01   1.00800           0
     12949 MEMB     97       POPC     C38      CTL2    -0.180000       12.0110           0
     12950 MEMB     97       POPC     H8X      HAL2     0.900000E-01   1.00800           0
     12951 MEMB     97       POPC     H8Y      HAL2     0.900000E-01   1.00800           0
     12952 MEMB     97       POPC     C39      CTL2    -0.180000       12.0110           0
     12953 MEMB     97       POPC     H9X      HAL2     0.900000E-01   1.00800           0
     12954 MEMB     97       POPC     H9Y      HAL2     0.900000E-01   1.00800           0
     12955 MEMB     97       POPC     C310     CTL2    -0.180000       12.0110           0
     12956 MEMB     97       POPC     H10X     HAL2     0.900000E-01   1.00800           0
     12957 MEMB     97       POPC     H10Y     HAL2     0.900000E-01   1.00800           0
     12958 MEMB     97       POPC     C311     CTL2    -0.180000       12.0110           0
     12959 MEMB     97       POPC     H11X     HAL2     0.900000E-01   1.00800           0
     12960 MEMB     97       POPC     H11Y     HAL2     0.900000E-01   1.00800           0
     12961 MEMB     97       POPC     C312     CTL2    -0.180000       12.0110           0
     12962 MEMB     97       POPC     H12X     HAL2     0.900000E-01   1.00800           0
     12963 MEMB     97       POPC     H12Y     HAL2     0.900000E-01   1.00800           0
     12964 MEMB     97       POPC     C313     CTL2    -0.180000       12.0110           0
     12965 MEMB     97       POPC     H13X     HAL2     0.900000E-01   1.00800           0
     12966 MEMB     97       POPC     H13Y     HAL2     0.900000E-01   1.00800           0
     12967 MEMB     97       POPC     C314     CTL2    -0.180000       12.0110           0
     12968 MEMB     97       POPC     H14X     HAL2     0.900000E-01   1.00800           0
     12969 MEMB     97       POPC     H14Y     HAL2     0.900000E-01   1.00800           0
     12970 MEMB     97       POPC     C315     CTL2    -0.180000       12.0110           0
     12971 MEMB     97       POPC     H15X     HAL2     0.900000E-01   1.00800           0
     12972 MEMB     97       POPC     H15Y     HAL2     0.900000E-01   1.00800           0
     12973 MEMB     97       POPC     C316     CTL3    -0.270000       12.0110           0
     12974 MEMB     97       POPC     H16X     HAL3     0.900000E-01   1.00800           0
     12975 MEMB     97       POPC     H16Y     HAL3     0.900000E-01   1.00800           0
     12976 MEMB     97       POPC     H16Z     HAL3     0.900000E-01   1.00800           0
     12977 MEMB     98       POPC     N        NTL     -0.600000       14.0070           0
     12978 MEMB     98       POPC     C12      CTL2    -0.100000       12.0110           0
     12979 MEMB     98       POPC     H12A     HL       0.250000       1.00800           0
     12980 MEMB     98       POPC     H12B     HL       0.250000       1.00800           0
     12981 MEMB     98       POPC     C13      CTL5    -0.350000       12.0110           0
     12982 MEMB     98       POPC     H13A     HL       0.250000       1.00800           0
     12983 MEMB     98       POPC     H13B     HL       0.250000       1.00800           0
     12984 MEMB     98       POPC     H13C     HL       0.250000       1.00800           0
     12985 MEMB     98       POPC     C14      CTL5    -0.350000       12.0110           0
     12986 MEMB     98       POPC     H14A     HL       0.250000       1.00800           0
     12987 MEMB     98       POPC     H14B     HL       0.250000       1.00800           0
     12988 MEMB     98       POPC     H14C     HL       0.250000       1.00800           0
     12989 MEMB     98       POPC     C15      CTL5    -0.350000       12.0110           0
     12990 MEMB     98       POPC     H15A     HL       0.250000       1.00800           0
     12991 MEMB     98       POPC     H15B     HL       0.250000       1.00800           0
     12992 MEMB     98       POPC     H15C     HL       0.250000       1.00800           0
     12993 MEMB     98       POPC     C11      CTL2    -0.800000E-01   12.0110           0
     12994 MEMB     98       POPC     H11A     HAL2     0.900000E-01   1.00800           0
     12995 MEMB     98       POPC     H11B     HAL2     0.900000E-01   1.00800           0
     12996 MEMB     98       POPC     P        PL        1.50000       30.9740           0
     12997 MEMB     98       POPC     O13      O2L     -0.780000       15.9994           0
     12998 MEMB     98       POPC     O14      O2L     -0.780000       15.9994           0
     12999 MEMB     98       POPC     O12      OSLP    -0.570000       15.9994           0
     13000 MEMB     98       POPC     O11      OSLP    -0.570000       15.9994           0
     13001 MEMB     98       POPC     C1       CTL2    -0.800000E-01   12.0110           0
     13002 MEMB     98       POPC     HA       HAL2     0.900000E-01   1.00800           0
     13003 MEMB     98       POPC     HB       HAL2     0.900000E-01   1.00800           0
     13004 MEMB     98       POPC     C2       CTL1     0.170000       12.0110           0
     13005 MEMB     98       POPC     HS       HAL1     0.900000E-01   1.00800           0
     13006 MEMB     98       POPC     O21      OSL     -0.490000       15.9994           0
     13007 MEMB     98       POPC     C21      CL       0.900000       12.0110           0
     13008 MEMB     98       POPC     O22      OBL     -0.630000       15.9994           0
     13009 MEMB     98       POPC     C22      CTL2    -0.220000       12.0110           0
     13010 MEMB     98       POPC     H2R      HAL2     0.900000E-01   1.00800           0
     13011 MEMB     98       POPC     H2S      HAL2     0.900000E-01   1.00800           0
     13012 MEMB     98       POPC     C3       CTL2     0.800000E-01   12.0110           0
     13013 MEMB     98       POPC     HX       HAL2     0.900000E-01   1.00800           0
     13014 MEMB     98       POPC     HY       HAL2     0.900000E-01   1.00800           0
     13015 MEMB     98       POPC     O31      OSL     -0.490000       15.9994           0
     13016 MEMB     98       POPC     C31      CL       0.900000       12.0110           0
     13017 MEMB     98       POPC     O32      OBL     -0.630000       15.9994           0
     13018 MEMB     98       POPC     C32      CTL2    -0.220000       12.0110           0
     13019 MEMB     98       POPC     H2X      HAL2     0.900000E-01   1.00800           0
     13020 MEMB     98       POPC     H2Y      HAL2     0.900000E-01   1.00800           0
     13021 MEMB     98       POPC     C23      CTL2    -0.180000       12.0110           0
     13022 MEMB     98       POPC     H3R      HAL2     0.900000E-01   1.00800           0
     13023 MEMB     98       POPC     H3S      HAL2     0.900000E-01   1.00800           0
     13024 MEMB     98       POPC     C24      CTL2    -0.180000       12.0110           0
     13025 MEMB     98       POPC     H4R      HAL2     0.900000E-01   1.00800           0
     13026 MEMB     98       POPC     H4S      HAL2     0.900000E-01   1.00800           0
     13027 MEMB     98       POPC     C25      CTL2    -0.180000       12.0110           0
     13028 MEMB     98       POPC     H5R      HAL2     0.900000E-01   1.00800           0
     13029 MEMB     98       POPC     H5S      HAL2     0.900000E-01   1.00800           0
     13030 MEMB     98       POPC     C26      CTL2    -0.180000       12.0110           0
     13031 MEMB     98       POPC     H6R      HAL2     0.900000E-01   1.00800           0
     13032 MEMB     98       POPC     H6S      HAL2     0.900000E-01   1.00800           0
     13033 MEMB     98       POPC     C27      CTL2    -0.180000       12.0110           0
     13034 MEMB     98       POPC     H7R      HAL2     0.900000E-01   1.00800           0
     13035 MEMB     98       POPC     H7S      HAL2     0.900000E-01   1.00800           0
     13036 MEMB     98       POPC     C28      CTL2    -0.180000       12.0110           0
     13037 MEMB     98       POPC     H8R      HAL2     0.900000E-01   1.00800           0
     13038 MEMB     98       POPC     H8S      HAL2     0.900000E-01   1.00800           0
     13039 MEMB     98       POPC     C29      CEL1    -0.150000       12.0110           0
     13040 MEMB     98       POPC     H91      HEL1     0.150000       1.00800           0
     13041 MEMB     98       POPC     C210     CEL1    -0.150000       12.0110           0
     13042 MEMB     98       POPC     H101     HEL1     0.150000       1.00800           0
     13043 MEMB     98       POPC     C211     CTL2    -0.180000       12.0110           0
     13044 MEMB     98       POPC     H11R     HAL2     0.900000E-01   1.00800           0
     13045 MEMB     98       POPC     H11S     HAL2     0.900000E-01   1.00800           0
     13046 MEMB     98       POPC     C212     CTL2    -0.180000       12.0110           0
     13047 MEMB     98       POPC     H12R     HAL2     0.900000E-01   1.00800           0
     13048 MEMB     98       POPC     H12S     HAL2     0.900000E-01   1.00800           0
     13049 MEMB     98       POPC     C213     CTL2    -0.180000       12.0110           0
     13050 MEMB     98       POPC     H13R     HAL2     0.900000E-01   1.00800           0
     13051 MEMB     98       POPC     H13S     HAL2     0.900000E-01   1.00800           0
     13052 MEMB     98       POPC     C214     CTL2    -0.180000       12.0110           0
     13053 MEMB     98       POPC     H14R     HAL2     0.900000E-01   1.00800           0
     13054 MEMB     98       POPC     H14S     HAL2     0.900000E-01   1.00800           0
     13055 MEMB     98       POPC     C215     CTL2    -0.180000       12.0110           0
     13056 MEMB     98       POPC     H15R     HAL2     0.900000E-01   1.00800           0
     13057 MEMB     98       POPC     H15S     HAL2     0.900000E-01   1.00800           0
     13058 MEMB     98       POPC     C216     CTL2    -0.180000       12.0110           0
     13059 MEMB     98       POPC     H16R     HAL2     0.900000E-01   1.00800           0
     13060 MEMB     98       POPC     H16S     HAL2     0.900000E-01   1.00800           0
     13061 MEMB     98       POPC     C217     CTL2    -0.180000       12.0110           0
     13062 MEMB     98       POPC     H17R     HAL2     0.900000E-01   1.00800           0
     13063 MEMB     98       POPC     H17S     HAL2     0.900000E-01   1.00800           0
     13064 MEMB     98       POPC     C218     CTL3    -0.270000       12.0110           0
     13065 MEMB     98       POPC     H18R     HAL3     0.900000E-01   1.00800           0
     13066 MEMB     98       POPC     H18S     HAL3     0.900000E-01   1.00800           0
     13067 MEMB     98       POPC     H18T     HAL3     0.900000E-01   1.00800           0
     13068 MEMB     98       POPC     C33      CTL2    -0.180000       12.0110           0
     13069 MEMB     98       POPC     H3X      HAL2     0.900000E-01   1.00800           0
     13070 MEMB     98       POPC     H3Y      HAL2     0.900000E-01   1.00800           0
     13071 MEMB     98       POPC     C34      CTL2    -0.180000       12.0110           0
     13072 MEMB     98       POPC     H4X      HAL2     0.900000E-01   1.00800           0
     13073 MEMB     98       POPC     H4Y      HAL2     0.900000E-01   1.00800           0
     13074 MEMB     98       POPC     C35      CTL2    -0.180000       12.0110           0
     13075 MEMB     98       POPC     H5X      HAL2     0.900000E-01   1.00800           0
     13076 MEMB     98       POPC     H5Y      HAL2     0.900000E-01   1.00800           0
     13077 MEMB     98       POPC     C36      CTL2    -0.180000       12.0110           0
     13078 MEMB     98       POPC     H6X      HAL2     0.900000E-01   1.00800           0
     13079 MEMB     98       POPC     H6Y      HAL2     0.900000E-01   1.00800           0
     13080 MEMB     98       POPC     C37      CTL2    -0.180000       12.0110           0
     13081 MEMB     98       POPC     H7X      HAL2     0.900000E-01   1.00800           0
     13082 MEMB     98       POPC     H7Y      HAL2     0.900000E-01   1.00800           0
     13083 MEMB     98       POPC     C38      CTL2    -0.180000       12.0110           0
     13084 MEMB     98       POPC     H8X      HAL2     0.900000E-01   1.00800           0
     13085 MEMB     98       POPC     H8Y      HAL2     0.900000E-01   1.00800           0
     13086 MEMB     98       POPC     C39      CTL2    -0.180000       12.0110           0
     13087 MEMB     98       POPC     H9X      HAL2     0.900000E-01   1.00800           0
     13088 MEMB     98       POPC     H9Y      HAL2     0.900000E-01   1.00800           0
     13089 MEMB     98       POPC     C310     CTL2    -0.180000       12.0110           0
     13090 MEMB     98       POPC     H10X     HAL2     0.900000E-01   1.00800           0
     13091 MEMB     98       POPC     H10Y     HAL2     0.900000E-01   1.00800           0
     13092 MEMB     98       POPC     C311     CTL2    -0.180000       12.0110           0
     13093 MEMB     98       POPC     H11X     HAL2     0.900000E-01   1.00800           0
     13094 MEMB     98       POPC     H11Y     HAL2     0.900000E-01   1.00800           0
     13095 MEMB     98       POPC     C312     CTL2    -0.180000       12.0110           0
     13096 MEMB     98       POPC     H12X     HAL2     0.900000E-01   1.00800           0
     13097 MEMB     98       POPC     H12Y     HAL2     0.900000E-01   1.00800           0
     13098 MEMB     98       POPC     C313     CTL2    -0.180000       12.0110           0
     13099 MEMB     98       POPC     H13X     HAL2     0.900000E-01   1.00800           0
     13100 MEMB     98       POPC     H13Y     HAL2     0.900000E-01   1.00800           0
     13101 MEMB     98       POPC     C314     CTL2    -0.180000       12.0110           0
     13102 MEMB     98       POPC     H14X     HAL2     0.900000E-01   1.00800           0
     13103 MEMB     98       POPC     H14Y     HAL2     0.900000E-01   1.00800           0
     13104 MEMB     98       POPC     C315     CTL2    -0.180000       12.0110           0
     13105 MEMB     98       POPC     H15X     HAL2     0.900000E-01   1.00800           0
     13106 MEMB     98       POPC     H15Y     HAL2     0.900000E-01   1.00800           0
     13107 MEMB     98       POPC     C316     CTL3    -0.270000       12.0110           0
     13108 MEMB     98       POPC     H16X     HAL3     0.900000E-01   1.00800           0
     13109 MEMB     98       POPC     H16Y     HAL3     0.900000E-01   1.00800           0
     13110 MEMB     98       POPC     H16Z     HAL3     0.900000E-01   1.00800           0
     13111 MEMB     99       POPC     N        NTL     -0.600000       14.0070           0
     13112 MEMB     99       POPC     C12      CTL2    -0.100000       12.0110           0
     13113 MEMB     99       POPC     H12A     HL       0.250000       1.00800           0
     13114 MEMB     99       POPC     H12B     HL       0.250000       1.00800           0
     13115 MEMB     99       POPC     C13      CTL5    -0.350000       12.0110           0
     13116 MEMB     99       POPC     H13A     HL       0.250000       1.00800           0
     13117 MEMB     99       POPC     H13B     HL       0.250000       1.00800           0
     13118 MEMB     99       POPC     H13C     HL       0.250000       1.00800           0
     13119 MEMB     99       POPC     C14      CTL5    -0.350000       12.0110           0
     13120 MEMB     99       POPC     H14A     HL       0.250000       1.00800           0
     13121 MEMB     99       POPC     H14B     HL       0.250000       1.00800           0
     13122 MEMB     99       POPC     H14C     HL       0.250000       1.00800           0
     13123 MEMB     99       POPC     C15      CTL5    -0.350000       12.0110           0
     13124 MEMB     99       POPC     H15A     HL       0.250000       1.00800           0
     13125 MEMB     99       POPC     H15B     HL       0.250000       1.00800           0
     13126 MEMB     99       POPC     H15C     HL       0.250000       1.00800           0
     13127 MEMB     99       POPC     C11      CTL2    -0.800000E-01   12.0110           0
     13128 MEMB     99       POPC     H11A     HAL2     0.900000E-01   1.00800           0
     13129 MEMB     99       POPC     H11B     HAL2     0.900000E-01   1.00800           0
     13130 MEMB     99       POPC     P        PL        1.50000       30.9740           0
     13131 MEMB     99       POPC     O13      O2L     -0.780000       15.9994           0
     13132 MEMB     99       POPC     O14      O2L     -0.780000       15.9994           0
     13133 MEMB     99       POPC     O12      OSLP    -0.570000       15.9994           0
     13134 MEMB     99       POPC     O11      OSLP    -0.570000       15.9994           0
     13135 MEMB     99       POPC     C1       CTL2    -0.800000E-01   12.0110           0
     13136 MEMB     99       POPC     HA       HAL2     0.900000E-01   1.00800           0
     13137 MEMB     99       POPC     HB       HAL2     0.900000E-01   1.00800           0
     13138 MEMB     99       POPC     C2       CTL1     0.170000       12.0110           0
     13139 MEMB     99       POPC     HS       HAL1     0.900000E-01   1.00800           0
     13140 MEMB     99       POPC     O21      OSL     -0.490000       15.9994           0
     13141 MEMB     99       POPC     C21      CL       0.900000       12.0110           0
     13142 MEMB     99       POPC     O22      OBL     -0.630000       15.9994           0
     13143 MEMB     99       POPC     C22      CTL2    -0.220000       12.0110           0
     13144 MEMB     99       POPC     H2R      HAL2     0.900000E-01   1.00800           0
     13145 MEMB     99       POPC     H2S      HAL2     0.900000E-01   1.00800           0
     13146 MEMB     99       POPC     C3       CTL2     0.800000E-01   12.0110           0
     13147 MEMB     99       POPC     HX       HAL2     0.900000E-01   1.00800           0
     13148 MEMB     99       POPC     HY       HAL2     0.900000E-01   1.00800           0
     13149 MEMB     99       POPC     O31      OSL     -0.490000       15.9994           0
     13150 MEMB     99       POPC     C31      CL       0.900000       12.0110           0
     13151 MEMB     99       POPC     O32      OBL     -0.630000       15.9994           0
     13152 MEMB     99       POPC     C32      CTL2    -0.220000       12.0110           0
     13153 MEMB     99       POPC     H2X      HAL2     0.900000E-01   1.00800           0
     13154 MEMB     99       POPC     H2Y      HAL2     0.900000E-01   1.00800           0
     13155 MEMB     99       POPC     C23      CTL2    -0.180000       12.0110           0
     13156 MEMB     99       POPC     H3R      HAL2     0.900000E-01   1.00800           0
     13157 MEMB     99       POPC     H3S      HAL2     0.900000E-01   1.00800           0
     13158 MEMB     99       POPC     C24      CTL2    -0.180000       12.0110           0
     13159 MEMB     99       POPC     H4R      HAL2     0.900000E-01   1.00800           0
     13160 MEMB     99       POPC     H4S      HAL2     0.900000E-01   1.00800           0
     13161 MEMB     99       POPC     C25      CTL2    -0.180000       12.0110           0
     13162 MEMB     99       POPC     H5R      HAL2     0.900000E-01   1.00800           0
     13163 MEMB     99       POPC     H5S      HAL2     0.900000E-01   1.00800           0
     13164 MEMB     99       POPC     C26      CTL2    -0.180000       12.0110           0
     13165 MEMB     99       POPC     H6R      HAL2     0.900000E-01   1.00800           0
     13166 MEMB     99       POPC     H6S      HAL2     0.900000E-01   1.00800           0
     13167 MEMB     99       POPC     C27      CTL2    -0.180000       12.0110           0
     13168 MEMB     99       POPC     H7R      HAL2     0.900000E-01   1.00800           0
     13169 MEMB     99       POPC     H7S      HAL2     0.900000E-01   1.00800           0
     13170 MEMB     99       POPC     C28      CTL2    -0.180000       12.0110           0
     13171 MEMB     99       POPC     H8R      HAL2     0.900000E-01   1.00800           0
     13172 MEMB     99       POPC     H8S      HAL2     0.900000E-01   1.00800           0
     13173 MEMB     99       POPC     C29      CEL1    -0.150000       12.0110           0
     13174 MEMB     99       POPC     H91      HEL1     0.150000       1.00800           0
     13175 MEMB     99       POPC     C210     CEL1    -0.150000       12.0110           0
     13176 MEMB     99       POPC     H101     HEL1     0.150000       1.00800           0
     13177 MEMB     99       POPC     C211     CTL2    -0.180000       12.0110           0
     13178 MEMB     99       POPC     H11R     HAL2     0.900000E-01   1.00800           0
     13179 MEMB     99       POPC     H11S     HAL2     0.900000E-01   1.00800           0
     13180 MEMB     99       POPC     C212     CTL2    -0.180000       12.0110           0
     13181 MEMB     99       POPC     H12R     HAL2     0.900000E-01   1.00800           0
     13182 MEMB     99       POPC     H12S     HAL2     0.900000E-01   1.00800           0
     13183 MEMB     99       POPC     C213     CTL2    -0.180000       12.0110           0
     13184 MEMB     99       POPC     H13R     HAL2     0.900000E-01   1.00800           0
     13185 MEMB     99       POPC     H13S     HAL2     0.900000E-01   1.00800           0
     13186 MEMB     99       POPC     C214     CTL2    -0.180000       12.0110           0
     13187 MEMB     99       POPC     H14R     HAL2     0.900000E-01   1.00800           0
     13188 MEMB     99       POPC     H14S     HAL2     0.900000E-01   1.00800           0
     13189 MEMB     99       POPC     C215     CTL2    -0.180000       12.0110           0
     13190 MEMB     99       POPC     H15R     HAL2     0.900000E-01   1.00800           0
     13191 MEMB     99       POPC     H15S     HAL2     0.900000E-01   1.00800           0
     13192 MEMB     99       POPC     C216     CTL2    -0.180000       12.0110           0
     13193 MEMB     99       POPC     H16R     HAL2     0.900000E-01   1.00800           0
     13194 MEMB     99       POPC     H16S     HAL2     0.900000E-01   1.00800           0
     13195 MEMB     99       POPC     C217     CTL2    -0.180000       12.0110           0
     13196 MEMB     99       POPC     H17R     HAL2     0.900000E-01   1.00800           0
     13197 MEMB     99       POPC     H17S     HAL2     0.900000E-01   1.00800           0
     13198 MEMB     99       POPC     C218     CTL3    -0.270000       12.0110           0
     13199 MEMB     99       POPC     H18R     HAL3     0.900000E-01   1.00800           0
     13200 MEMB     99       POPC     H18S     HAL3     0.900000E-01   1.00800           0
     13201 MEMB     99       POPC     H18T     HAL3     0.900000E-01   1.00800           0
     13202 MEMB     99       POPC     C33      CTL2    -0.180000       12.0110           0
     13203 MEMB     99       POPC     H3X      HAL2     0.900000E-01   1.00800           0
     13204 MEMB     99       POPC     H3Y      HAL2     0.900000E-01   1.00800           0
     13205 MEMB     99       POPC     C34      CTL2    -0.180000       12.0110           0
     13206 MEMB     99       POPC     H4X      HAL2     0.900000E-01   1.00800           0
     13207 MEMB     99       POPC     H4Y      HAL2     0.900000E-01   1.00800           0
     13208 MEMB     99       POPC     C35      CTL2    -0.180000       12.0110           0
     13209 MEMB     99       POPC     H5X      HAL2     0.900000E-01   1.00800           0
     13210 MEMB     99       POPC     H5Y      HAL2     0.900000E-01   1.00800           0
     13211 MEMB     99       POPC     C36      CTL2    -0.180000       12.0110           0
     13212 MEMB     99       POPC     H6X      HAL2     0.900000E-01   1.00800           0
     13213 MEMB     99       POPC     H6Y      HAL2     0.900000E-01   1.00800           0
     13214 MEMB     99       POPC     C37      CTL2    -0.180000       12.0110           0
     13215 MEMB     99       POPC     H7X      HAL2     0.900000E-01   1.00800           0
     13216 MEMB     99       POPC     H7Y      HAL2     0.900000E-01   1.00800           0
     13217 MEMB     99       POPC     C38      CTL2    -0.180000       12.0110           0
     13218 MEMB     99       POPC     H8X      HAL2     0.900000E-01   1.00800           0
     13219 MEMB     99       POPC     H8Y      HAL2     0.900000E-01   1.00800           0
     13220 MEMB     99       POPC     C39      CTL2    -0.180000       12.0110           0
     13221 MEMB     99       POPC     H9X      HAL2     0.900000E-01   1.00800           0
     13222 MEMB     99       POPC     H9Y      HAL2     0.900000E-01   1.00800           0
     13223 MEMB     99       POPC     C310     CTL2    -0.180000       12.0110           0
     13224 MEMB     99       POPC     H10X     HAL2     0.900000E-01   1.00800           0
     13225 MEMB     99       POPC     H10Y     HAL2     0.900000E-01   1.00800           0
     13226 MEMB     99       POPC     C311     CTL2    -0.180000       12.0110           0
     13227 MEMB     99       POPC     H11X     HAL2     0.900000E-01   1.00800           0
     13228 MEMB     99       POPC     H11Y     HAL2     0.900000E-01   1.00800           0
     13229 MEMB     99       POPC     C312     CTL2    -0.180000       12.0110           0
     13230 MEMB     99       POPC     H12X     HAL2     0.900000E-01   1.00800           0
     13231 MEMB     99       POPC     H12Y     HAL2     0.900000E-01   1.00800           0
     13232 MEMB     99       POPC     C313     CTL2    -0.180000       12.0110           0
     13233 MEMB     99       POPC     H13X     HAL2     0.900000E-01   1.00800           0
     13234 MEMB     99       POPC     H13Y     HAL2     0.900000E-01   1.00800           0
     13235 MEMB     99       POPC     C314     CTL2    -0.180000       12.0110           0
     13236 MEMB     99       POPC     H14X     HAL2     0.900000E-01   1.00800           0
     13237 MEMB     99       POPC     H14Y     HAL2     0.900000E-01   1.00800           0
     13238 MEMB     99       POPC     C315     CTL2    -0.180000       12.0110           0
     13239 MEMB     99       POPC     H15X     HAL2     0.900000E-01   1.00800           0
     13240 MEMB     99       POPC     H15Y     HAL2     0.900000E-01   1.00800           0
     13241 MEMB     99       POPC     C316     CTL3    -0.270000       12.0110           0
     13242 MEMB     99       POPC     H16X     HAL3     0.900000E-01   1.00800           0
     13243 MEMB     99       POPC     H16Y     HAL3     0.900000E-01   1.00800           0
     13244 MEMB     99       POPC     H16Z     HAL3     0.900000E-01   1.00800           0
     13245 MEMB     100      POPC     N        NTL     -0.600000       14.0070           0
     13246 MEMB     100      POPC     C12      CTL2    -0.100000       12.0110           0
     13247 MEMB     100      POPC     H12A     HL       0.250000       1.00800           0
     13248 MEMB     100      POPC     H12B     HL       0.250000       1.00800           0
     13249 MEMB     100      POPC     C13      CTL5    -0.350000       12.0110           0
     13250 MEMB     100      POPC     H13A     HL       0.250000       1.00800           0
     13251 MEMB     100      POPC     H13B     HL       0.250000       1.00800           0
     13252 MEMB     100      POPC     H13C     HL       0.250000       1.00800           0
     13253 MEMB     100      POPC     C14      CTL5    -0.350000       12.0110           0
     13254 MEMB     100      POPC     H14A     HL       0.250000       1.00800           0
     13255 MEMB     100      POPC     H14B     HL       0.250000       1.00800           0
     13256 MEMB     100      POPC     H14C     HL       0.250000       1.00800           0
     13257 MEMB     100      POPC     C15      CTL5    -0.350000       12.0110           0
     13258 MEMB     100      POPC     H15A     HL       0.250000       1.00800           0
     13259 MEMB     100      POPC     H15B     HL       0.250000       1.00800           0
     13260 MEMB     100      POPC     H15C     HL       0.250000       1.00800           0
     13261 MEMB     100      POPC     C11      CTL2    -0.800000E-01   12.0110           0
     13262 MEMB     100      POPC     H11A     HAL2     0.900000E-01   1.00800           0
     13263 MEMB     100      POPC     H11B     HAL2     0.900000E-01   1.00800           0
     13264 MEMB     100      POPC     P        PL        1.50000       30.9740           0
     13265 MEMB     100      POPC     O13      O2L     -0.780000       15.9994           0
     13266 MEMB     100      POPC     O14      O2L     -0.780000       15.9994           0
     13267 MEMB     100      POPC     O12      OSLP    -0.570000       15.9994           0
     13268 MEMB     100      POPC     O11      OSLP    -0.570000       15.9994           0
     13269 MEMB     100      POPC     C1       CTL2    -0.800000E-01   12.0110           0
     13270 MEMB     100      POPC     HA       HAL2     0.900000E-01   1.00800           0
     13271 MEMB     100      POPC     HB       HAL2     0.900000E-01   1.00800           0
     13272 MEMB     100      POPC     C2       CTL1     0.170000       12.0110           0
     13273 MEMB     100      POPC     HS       HAL1     0.900000E-01   1.00800           0
     13274 MEMB     100      POPC     O21      OSL     -0.490000       15.9994           0
     13275 MEMB     100      POPC     C21      CL       0.900000       12.0110           0
     13276 MEMB     100      POPC     O22      OBL     -0.630000       15.9994           0
     13277 MEMB     100      POPC     C22      CTL2    -0.220000       12.0110           0
     13278 MEMB     100      POPC     H2R      HAL2     0.900000E-01   1.00800           0
     13279 MEMB     100      POPC     H2S      HAL2     0.900000E-01   1.00800           0
     13280 MEMB     100      POPC     C3       CTL2     0.800000E-01   12.0110           0
     13281 MEMB     100      POPC     HX       HAL2     0.900000E-01   1.00800           0
     13282 MEMB     100      POPC     HY       HAL2     0.900000E-01   1.00800           0
     13283 MEMB     100      POPC     O31      OSL     -0.490000       15.9994           0
     13284 MEMB     100      POPC     C31      CL       0.900000       12.0110           0
     13285 MEMB     100      POPC     O32      OBL     -0.630000       15.9994           0
     13286 MEMB     100      POPC     C32      CTL2    -0.220000       12.0110           0
     13287 MEMB     100      POPC     H2X      HAL2     0.900000E-01   1.00800           0
     13288 MEMB     100      POPC     H2Y      HAL2     0.900000E-01   1.00800           0
     13289 MEMB     100      POPC     C23      CTL2    -0.180000       12.0110           0
     13290 MEMB     100      POPC     H3R      HAL2     0.900000E-01   1.00800           0
     13291 MEMB     100      POPC     H3S      HAL2     0.900000E-01   1.00800           0
     13292 MEMB     100      POPC     C24      CTL2    -0.180000       12.0110           0
     13293 MEMB     100      POPC     H4R      HAL2     0.900000E-01   1.00800           0
     13294 MEMB     100      POPC     H4S      HAL2     0.900000E-01   1.00800           0
     13295 MEMB     100      POPC     C25      CTL2    -0.180000       12.0110           0
     13296 MEMB     100      POPC     H5R      HAL2     0.900000E-01   1.00800           0
     13297 MEMB     100      POPC     H5S      HAL2     0.900000E-01   1.00800           0
     13298 MEMB     100      POPC     C26      CTL2    -0.180000       12.0110           0
     13299 MEMB     100      POPC     H6R      HAL2     0.900000E-01   1.00800           0
     13300 MEMB     100      POPC     H6S      HAL2     0.900000E-01   1.00800           0
     13301 MEMB     100      POPC     C27      CTL2    -0.180000       12.0110           0
     13302 MEMB     100      POPC     H7R      HAL2     0.900000E-01   1.00800           0
     13303 MEMB     100      POPC     H7S      HAL2     0.900000E-01   1.00800           0
     13304 MEMB     100      POPC     C28      CTL2    -0.180000       12.0110           0
     13305 MEMB     100      POPC     H8R      HAL2     0.900000E-01   1.00800           0
     13306 MEMB     100      POPC     H8S      HAL2     0.900000E-01   1.00800           0
     13307 MEMB     100      POPC     C29      CEL1    -0.150000       12.0110           0
     13308 MEMB     100      POPC     H91      HEL1     0.150000       1.00800           0
     13309 MEMB     100      POPC     C210     CEL1    -0.150000       12.0110           0
     13310 MEMB     100      POPC     H101     HEL1     0.150000       1.00800           0
     13311 MEMB     100      POPC     C211     CTL2    -0.180000       12.0110           0
     13312 MEMB     100      POPC     H11R     HAL2     0.900000E-01   1.00800           0
     13313 MEMB     100      POPC     H11S     HAL2     0.900000E-01   1.00800           0
     13314 MEMB     100      POPC     C212     CTL2    -0.180000       12.0110           0
     13315 MEMB     100      POPC     H12R     HAL2     0.900000E-01   1.00800           0
     13316 MEMB     100      POPC     H12S     HAL2     0.900000E-01   1.00800           0
     13317 MEMB     100      POPC     C213     CTL2    -0.180000       12.0110           0
     13318 MEMB     100      POPC     H13R     HAL2     0.900000E-01   1.00800           0
     13319 MEMB     100      POPC     H13S     HAL2     0.900000E-01   1.00800           0
     13320 MEMB     100      POPC     C214     CTL2    -0.180000       12.0110           0
     13321 MEMB     100      POPC     H14R     HAL2     0.900000E-01   1.00800           0
     13322 MEMB     100      POPC     H14S     HAL2     0.900000E-01   1.00800           0
     13323 MEMB     100      POPC     C215     CTL2    -0.180000       12.0110           0
     13324 MEMB     100      POPC     H15R     HAL2     0.900000E-01   1.00800           0
     13325 MEMB     100      POPC     H15S     HAL2     0.900000E-01   1.00800           0
     13326 MEMB     100      POPC     C216     CTL2    -0.180000       12.0110           0
     13327 MEMB     100      POPC     H16R     HAL2     0.900000E-01   1.00800           0
     13328 MEMB     100      POPC     H16S     HAL2     0.900000E-01   1.00800           0
     13329 MEMB     100      POPC     C217     CTL2    -0.180000       12.0110           0
     13330 MEMB     100      POPC     H17R     HAL2     0.900000E-01   1.00800           0
     13331 MEMB     100      POPC     H17S     HAL2     0.900000E-01   1.00800           0
     13332 MEMB     100      POPC     C218     CTL3    -0.270000       12.0110           0
     13333 MEMB     100      POPC     H18R     HAL3     0.900000E-01   1.00800           0
     13334 MEMB     100      POPC     H18S     HAL3     0.900000E-01   1.00800           0
     13335 MEMB     100      POPC     H18T     HAL3     0.900000E-01   1.00800           0
     13336 MEMB     100      POPC     C33      CTL2    -0.180000       12.0110           0
     13337 MEMB     100      POPC     H3X      HAL2     0.900000E-01   1.00800           0
     13338 MEMB     100      POPC     H3Y      HAL2     0.900000E-01   1.00800           0
     13339 MEMB     100      POPC     C34      CTL2    -0.180000       12.0110           0
     13340 MEMB     100      POPC     H4X      HAL2     0.900000E-01   1.00800           0
     13341 MEMB     100      POPC     H4Y      HAL2     0.900000E-01   1.00800           0
     13342 MEMB     100      POPC     C35      CTL2    -0.180000       12.0110           0
     13343 MEMB     100      POPC     H5X      HAL2     0.900000E-01   1.00800           0
     13344 MEMB     100      POPC     H5Y      HAL2     0.900000E-01   1.00800           0
     13345 MEMB     100      POPC     C36      CTL2    -0.180000       12.0110           0
     13346 MEMB     100      POPC     H6X      HAL2     0.900000E-01   1.00800           0
     13347 MEMB     100      POPC     H6Y      HAL2     0.900000E-01   1.00800           0
     13348 MEMB     100      POPC     C37      CTL2    -0.180000       12.0110           0
     13349 MEMB     100      POPC     H7X      HAL2     0.900000E-01   1.00800           0
     13350 MEMB     100      POPC     H7Y      HAL2     0.900000E-01   1.00800           0
     13351 MEMB     100      POPC     C38      CTL2    -0.180000       12.0110           0
     13352 MEMB     100      POPC     H8X      HAL2     0.900000E-01   1.00800           0
     13353 MEMB     100      POPC     H8Y      HAL2     0.900000E-01   1.00800           0
     13354 MEMB     100      POPC     C39      CTL2    -0.180000       12.0110           0
     13355 MEMB     100      POPC     H9X      HAL2     0.900000E-01   1.00800           0
     13356 MEMB     100      POPC     H9Y      HAL2     0.900000E-01   1.00800           0
     13357 MEMB     100      POPC     C310     CTL2    -0.180000       12.0110           0
     13358 MEMB     100      POPC     H10X     HAL2     0.900000E-01   1.00800           0
     13359 MEMB     100      POPC     H10Y     HAL2     0.900000E-01   1.00800           0
     13360 MEMB     100      POPC     C311     CTL2    -0.180000       12.0110           0
     13361 MEMB     100      POPC     H11X     HAL2     0.900000E-01   1.00800           0
     13362 MEMB     100      POPC     H11Y     HAL2     0.900000E-01   1.00800           0
     13363 MEMB     100      POPC     C312     CTL2    -0.180000       12.0110           0
     13364 MEMB     100      POPC     H12X     HAL2     0.900000E-01   1.00800           0
     13365 MEMB     100      POPC     H12Y     HAL2     0.900000E-01   1.00800           0
     13366 MEMB     100      POPC     C313     CTL2    -0.180000       12.0110           0
     13367 MEMB     100      POPC     H13X     HAL2     0.900000E-01   1.00800           0
     13368 MEMB     100      POPC     H13Y     HAL2     0.900000E-01   1.00800           0
     13369 MEMB     100      POPC     C314     CTL2    -0.180000       12.0110           0
     13370 MEMB     100      POPC     H14X     HAL2     0.900000E-01   1.00800           0
     13371 MEMB     100      POPC     H14Y     HAL2     0.900000E-01   1.00800           0
     13372 MEMB     100      POPC     C315     CTL2    -0.180000       12.0110           0
     13373 MEMB     100      POPC     H15X     HAL2     0.900000E-01   1.00800           0
     13374 MEMB     100      POPC     H15Y     HAL2     0.900000E-01   1.00800           0
     13375 MEMB     100      POPC     C316     CTL3    -0.270000       12.0110           0
     13376 MEMB     100      POPC     H16X     HAL3     0.900000E-01   1.00800           0
     13377 MEMB     100      POPC     H16Y     HAL3     0.900000E-01   1.00800           0
     13378 MEMB     100      POPC     H16Z     HAL3     0.900000E-01   1.00800           0
     13379 MEMB     101      POPC     N        NTL     -0.600000       14.0070           0
     13380 MEMB     101      POPC     C12      CTL2    -0.100000       12.0110           0
     13381 MEMB     101      POPC     H12A     HL       0.250000       1.00800           0
     13382 MEMB     101      POPC     H12B     HL       0.250000       1.00800           0
     13383 MEMB     101      POPC     C13      CTL5    -0.350000       12.0110           0
     13384 MEMB     101      POPC     H13A     HL       0.250000       1.00800           0
     13385 MEMB     101      POPC     H13B     HL       0.250000       1.00800           0
     13386 MEMB     101      POPC     H13C     HL       0.250000       1.00800           0
     13387 MEMB     101      POPC     C14      CTL5    -0.350000       12.0110           0
     13388 MEMB     101      POPC     H14A     HL       0.250000       1.00800           0
     13389 MEMB     101      POPC     H14B     HL       0.250000       1.00800           0
     13390 MEMB     101      POPC     H14C     HL       0.250000       1.00800           0
     13391 MEMB     101      POPC     C15      CTL5    -0.350000       12.0110           0
     13392 MEMB     101      POPC     H15A     HL       0.250000       1.00800           0
     13393 MEMB     101      POPC     H15B     HL       0.250000       1.00800           0
     13394 MEMB     101      POPC     H15C     HL       0.250000       1.00800           0
     13395 MEMB     101      POPC     C11      CTL2    -0.800000E-01   12.0110           0
     13396 MEMB     101      POPC     H11A     HAL2     0.900000E-01   1.00800           0
     13397 MEMB     101      POPC     H11B     HAL2     0.900000E-01   1.00800           0
     13398 MEMB     101      POPC     P        PL        1.50000       30.9740           0
     13399 MEMB     101      POPC     O13      O2L     -0.780000       15.9994           0
     13400 MEMB     101      POPC     O14      O2L     -0.780000       15.9994           0
     13401 MEMB     101      POPC     O12      OSLP    -0.570000       15.9994           0
     13402 MEMB     101      POPC     O11      OSLP    -0.570000       15.9994           0
     13403 MEMB     101      POPC     C1       CTL2    -0.800000E-01   12.0110           0
     13404 MEMB     101      POPC     HA       HAL2     0.900000E-01   1.00800           0
     13405 MEMB     101      POPC     HB       HAL2     0.900000E-01   1.00800           0
     13406 MEMB     101      POPC     C2       CTL1     0.170000       12.0110           0
     13407 MEMB     101      POPC     HS       HAL1     0.900000E-01   1.00800           0
     13408 MEMB     101      POPC     O21      OSL     -0.490000       15.9994           0
     13409 MEMB     101      POPC     C21      CL       0.900000       12.0110           0
     13410 MEMB     101      POPC     O22      OBL     -0.630000       15.9994           0
     13411 MEMB     101      POPC     C22      CTL2    -0.220000       12.0110           0
     13412 MEMB     101      POPC     H2R      HAL2     0.900000E-01   1.00800           0
     13413 MEMB     101      POPC     H2S      HAL2     0.900000E-01   1.00800           0
     13414 MEMB     101      POPC     C3       CTL2     0.800000E-01   12.0110           0
     13415 MEMB     101      POPC     HX       HAL2     0.900000E-01   1.00800           0
     13416 MEMB     101      POPC     HY       HAL2     0.900000E-01   1.00800           0
     13417 MEMB     101      POPC     O31      OSL     -0.490000       15.9994           0
     13418 MEMB     101      POPC     C31      CL       0.900000       12.0110           0
     13419 MEMB     101      POPC     O32      OBL     -0.630000       15.9994           0
     13420 MEMB     101      POPC     C32      CTL2    -0.220000       12.0110           0
     13421 MEMB     101      POPC     H2X      HAL2     0.900000E-01   1.00800           0
     13422 MEMB     101      POPC     H2Y      HAL2     0.900000E-01   1.00800           0
     13423 MEMB     101      POPC     C23      CTL2    -0.180000       12.0110           0
     13424 MEMB     101      POPC     H3R      HAL2     0.900000E-01   1.00800           0
     13425 MEMB     101      POPC     H3S      HAL2     0.900000E-01   1.00800           0
     13426 MEMB     101      POPC     C24      CTL2    -0.180000       12.0110           0
     13427 MEMB     101      POPC     H4R      HAL2     0.900000E-01   1.00800           0
     13428 MEMB     101      POPC     H4S      HAL2     0.900000E-01   1.00800           0
     13429 MEMB     101      POPC     C25      CTL2    -0.180000       12.0110           0
     13430 MEMB     101      POPC     H5R      HAL2     0.900000E-01   1.00800           0
     13431 MEMB     101      POPC     H5S      HAL2     0.900000E-01   1.00800           0
     13432 MEMB     101      POPC     C26      CTL2    -0.180000       12.0110           0
     13433 MEMB     101      POPC     H6R      HAL2     0.900000E-01   1.00800           0
     13434 MEMB     101      POPC     H6S      HAL2     0.900000E-01   1.00800           0
     13435 MEMB     101      POPC     C27      CTL2    -0.180000       12.0110           0
     13436 MEMB     101      POPC     H7R      HAL2     0.900000E-01   1.00800           0
     13437 MEMB     101      POPC     H7S      HAL2     0.900000E-01   1.00800           0
     13438 MEMB     101      POPC     C28      CTL2    -0.180000       12.0110           0
     13439 MEMB     101      POPC     H8R      HAL2     0.900000E-01   1.00800           0
     13440 MEMB     101      POPC     H8S      HAL2     0.900000E-01   1.00800           0
     13441 MEMB     101      POPC     C29      CEL1    -0.150000       12.0110           0
     13442 MEMB     101      POPC     H91      HEL1     0.150000       1.00800           0
     13443 MEMB     101      POPC     C210     CEL1    -0.150000       12.0110           0
     13444 MEMB     101      POPC     H101     HEL1     0.150000       1.00800           0
     13445 MEMB     101      POPC     C211     CTL2    -0.180000       12.0110           0
     13446 MEMB     101      POPC     H11R     HAL2     0.900000E-01   1.00800           0
     13447 MEMB     101      POPC     H11S     HAL2     0.900000E-01   1.00800           0
     13448 MEMB     101      POPC     C212     CTL2    -0.180000       12.0110           0
     13449 MEMB     101      POPC     H12R     HAL2     0.900000E-01   1.00800           0
     13450 MEMB     101      POPC     H12S     HAL2     0.900000E-01   1.00800           0
     13451 MEMB     101      POPC     C213     CTL2    -0.180000       12.0110           0
     13452 MEMB     101      POPC     H13R     HAL2     0.900000E-01   1.00800           0
     13453 MEMB     101      POPC     H13S     HAL2     0.900000E-01   1.00800           0
     13454 MEMB     101      POPC     C214     CTL2    -0.180000       12.0110           0
     13455 MEMB     101      POPC     H14R     HAL2     0.900000E-01   1.00800           0
     13456 MEMB     101      POPC     H14S     HAL2     0.900000E-01   1.00800           0
     13457 MEMB     101      POPC     C215     CTL2    -0.180000       12.0110           0
     13458 MEMB     101      POPC     H15R     HAL2     0.900000E-01   1.00800           0
     13459 MEMB     101      POPC     H15S     HAL2     0.900000E-01   1.00800           0
     13460 MEMB     101      POPC     C216     CTL2    -0.180000       12.0110           0
     13461 MEMB     101      POPC     H16R     HAL2     0.900000E-01   1.00800           0
     13462 MEMB     101      POPC     H16S     HAL2     0.900000E-01   1.00800           0
     13463 MEMB     101      POPC     C217     CTL2    -0.180000       12.0110           0
     13464 MEMB     101      POPC     H17R     HAL2     0.900000E-01   1.00800           0
     13465 MEMB     101      POPC     H17S     HAL2     0.900000E-01   1.00800           0
     13466 MEMB     101      POPC     C218     CTL3    -0.270000       12.0110           0
     13467 MEMB     101      POPC     H18R     HAL3     0.900000E-01   1.00800           0
     13468 MEMB     101      POPC     H18S     HAL3     0.900000E-01   1.00800           0
     13469 MEMB     101      POPC     H18T     HAL3     0.900000E-01   1.00800           0
     13470 MEMB     101      POPC     C33      CTL2    -0.180000       12.0110           0
     13471 MEMB     101      POPC     H3X      HAL2     0.900000E-01   1.00800           0
     13472 MEMB     101      POPC     H3Y      HAL2     0.900000E-01   1.00800           0
     13473 MEMB     101      POPC     C34      CTL2    -0.180000       12.0110           0
     13474 MEMB     101      POPC     H4X      HAL2     0.900000E-01   1.00800           0
     13475 MEMB     101      POPC     H4Y      HAL2     0.900000E-01   1.00800           0
     13476 MEMB     101      POPC     C35      CTL2    -0.180000       12.0110           0
     13477 MEMB     101      POPC     H5X      HAL2     0.900000E-01   1.00800           0
     13478 MEMB     101      POPC     H5Y      HAL2     0.900000E-01   1.00800           0
     13479 MEMB     101      POPC     C36      CTL2    -0.180000       12.0110           0
     13480 MEMB     101      POPC     H6X      HAL2     0.900000E-01   1.00800           0
     13481 MEMB     101      POPC     H6Y      HAL2     0.900000E-01   1.00800           0
     13482 MEMB     101      POPC     C37      CTL2    -0.180000       12.0110           0
     13483 MEMB     101      POPC     H7X      HAL2     0.900000E-01   1.00800           0
     13484 MEMB     101      POPC     H7Y      HAL2     0.900000E-01   1.00800           0
     13485 MEMB     101      POPC     C38      CTL2    -0.180000       12.0110           0
     13486 MEMB     101      POPC     H8X      HAL2     0.900000E-01   1.00800           0
     13487 MEMB     101      POPC     H8Y      HAL2     0.900000E-01   1.00800           0
     13488 MEMB     101      POPC     C39      CTL2    -0.180000       12.0110           0
     13489 MEMB     101      POPC     H9X      HAL2     0.900000E-01   1.00800           0
     13490 MEMB     101      POPC     H9Y      HAL2     0.900000E-01   1.00800           0
     13491 MEMB     101      POPC     C310     CTL2    -0.180000       12.0110           0
     13492 MEMB     101      POPC     H10X     HAL2     0.900000E-01   1.00800           0
     13493 MEMB     101      POPC     H10Y     HAL2     0.900000E-01   1.00800           0
     13494 MEMB     101      POPC     C311     CTL2    -0.180000       12.0110           0
     13495 MEMB     101      POPC     H11X     HAL2     0.900000E-01   1.00800           0
     13496 MEMB     101      POPC     H11Y     HAL2     0.900000E-01   1.00800           0
     13497 MEMB     101      POPC     C312     CTL2    -0.180000       12.0110           0
     13498 MEMB     101      POPC     H12X     HAL2     0.900000E-01   1.00800           0
     13499 MEMB     101      POPC     H12Y     HAL2     0.900000E-01   1.00800           0
     13500 MEMB     101      POPC     C313     CTL2    -0.180000       12.0110           0
     13501 MEMB     101      POPC     H13X     HAL2     0.900000E-01   1.00800           0
     13502 MEMB     101      POPC     H13Y     HAL2     0.900000E-01   1.00800           0
     13503 MEMB     101      POPC     C314     CTL2    -0.180000       12.0110           0
     13504 MEMB     101      POPC     H14X     HAL2     0.900000E-01   1.00800           0
     13505 MEMB     101      POPC     H14Y     HAL2     0.900000E-01   1.00800           0
     13506 MEMB     101      POPC     C315     CTL2    -0.180000       12.0110           0
     13507 MEMB     101      POPC     H15X     HAL2     0.900000E-01   1.00800           0
     13508 MEMB     101      POPC     H15Y     HAL2     0.900000E-01   1.00800           0
     13509 MEMB     101      POPC     C316     CTL3    -0.270000       12.0110           0
     13510 MEMB     101      POPC     H16X     HAL3     0.900000E-01   1.00800           0
     13511 MEMB     101      POPC     H16Y     HAL3     0.900000E-01   1.00800           0
     13512 MEMB     101      POPC     H16Z     HAL3     0.900000E-01   1.00800           0
     13513 MEMB     102      POPC     N        NTL     -0.600000       14.0070           0
     13514 MEMB     102      POPC     C12      CTL2    -0.100000       12.0110           0
     13515 MEMB     102      POPC     H12A     HL       0.250000       1.00800           0
     13516 MEMB     102      POPC     H12B     HL       0.250000       1.00800           0
     13517 MEMB     102      POPC     C13      CTL5    -0.350000       12.0110           0
     13518 MEMB     102      POPC     H13A     HL       0.250000       1.00800           0
     13519 MEMB     102      POPC     H13B     HL       0.250000       1.00800           0
     13520 MEMB     102      POPC     H13C     HL       0.250000       1.00800           0
     13521 MEMB     102      POPC     C14      CTL5    -0.350000       12.0110           0
     13522 MEMB     102      POPC     H14A     HL       0.250000       1.00800           0
     13523 MEMB     102      POPC     H14B     HL       0.250000       1.00800           0
     13524 MEMB     102      POPC     H14C     HL       0.250000       1.00800           0
     13525 MEMB     102      POPC     C15      CTL5    -0.350000       12.0110           0
     13526 MEMB     102      POPC     H15A     HL       0.250000       1.00800           0
     13527 MEMB     102      POPC     H15B     HL       0.250000       1.00800           0
     13528 MEMB     102      POPC     H15C     HL       0.250000       1.00800           0
     13529 MEMB     102      POPC     C11      CTL2    -0.800000E-01   12.0110           0
     13530 MEMB     102      POPC     H11A     HAL2     0.900000E-01   1.00800           0
     13531 MEMB     102      POPC     H11B     HAL2     0.900000E-01   1.00800           0
     13532 MEMB     102      POPC     P        PL        1.50000       30.9740           0
     13533 MEMB     102      POPC     O13      O2L     -0.780000       15.9994           0
     13534 MEMB     102      POPC     O14      O2L     -0.780000       15.9994           0
     13535 MEMB     102      POPC     O12      OSLP    -0.570000       15.9994           0
     13536 MEMB     102      POPC     O11      OSLP    -0.570000       15.9994           0
     13537 MEMB     102      POPC     C1       CTL2    -0.800000E-01   12.0110           0
     13538 MEMB     102      POPC     HA       HAL2     0.900000E-01   1.00800           0
     13539 MEMB     102      POPC     HB       HAL2     0.900000E-01   1.00800           0
     13540 MEMB     102      POPC     C2       CTL1     0.170000       12.0110           0
     13541 MEMB     102      POPC     HS       HAL1     0.900000E-01   1.00800           0
     13542 MEMB     102      POPC     O21      OSL     -0.490000       15.9994           0
     13543 MEMB     102      POPC     C21      CL       0.900000       12.0110           0
     13544 MEMB     102      POPC     O22      OBL     -0.630000       15.9994           0
     13545 MEMB     102      POPC     C22      CTL2    -0.220000       12.0110           0
     13546 MEMB     102      POPC     H2R      HAL2     0.900000E-01   1.00800           0
     13547 MEMB     102      POPC     H2S      HAL2     0.900000E-01   1.00800           0
     13548 MEMB     102      POPC     C3       CTL2     0.800000E-01   12.0110           0
     13549 MEMB     102      POPC     HX       HAL2     0.900000E-01   1.00800           0
     13550 MEMB     102      POPC     HY       HAL2     0.900000E-01   1.00800           0
     13551 MEMB     102      POPC     O31      OSL     -0.490000       15.9994           0
     13552 MEMB     102      POPC     C31      CL       0.900000       12.0110           0
     13553 MEMB     102      POPC     O32      OBL     -0.630000       15.9994           0
     13554 MEMB     102      POPC     C32      CTL2    -0.220000       12.0110           0
     13555 MEMB     102      POPC     H2X      HAL2     0.900000E-01   1.00800           0
     13556 MEMB     102      POPC     H2Y      HAL2     0.900000E-01   1.00800           0
     13557 MEMB     102      POPC     C23      CTL2    -0.180000       12.0110           0
     13558 MEMB     102      POPC     H3R      HAL2     0.900000E-01   1.00800           0
     13559 MEMB     102      POPC     H3S      HAL2     0.900000E-01   1.00800           0
     13560 MEMB     102      POPC     C24      CTL2    -0.180000       12.0110           0
     13561 MEMB     102      POPC     H4R      HAL2     0.900000E-01   1.00800           0
     13562 MEMB     102      POPC     H4S      HAL2     0.900000E-01   1.00800           0
     13563 MEMB     102      POPC     C25      CTL2    -0.180000       12.0110           0
     13564 MEMB     102      POPC     H5R      HAL2     0.900000E-01   1.00800           0
     13565 MEMB     102      POPC     H5S      HAL2     0.900000E-01   1.00800           0
     13566 MEMB     102      POPC     C26      CTL2    -0.180000       12.0110           0
     13567 MEMB     102      POPC     H6R      HAL2     0.900000E-01   1.00800           0
     13568 MEMB     102      POPC     H6S      HAL2     0.900000E-01   1.00800           0
     13569 MEMB     102      POPC     C27      CTL2    -0.180000       12.0110           0
     13570 MEMB     102      POPC     H7R      HAL2     0.900000E-01   1.00800           0
     13571 MEMB     102      POPC     H7S      HAL2     0.900000E-01   1.00800           0
     13572 MEMB     102      POPC     C28      CTL2    -0.180000       12.0110           0
     13573 MEMB     102      POPC     H8R      HAL2     0.900000E-01   1.00800           0
     13574 MEMB     102      POPC     H8S      HAL2     0.900000E-01   1.00800           0
     13575 MEMB     102      POPC     C29      CEL1    -0.150000       12.0110           0
     13576 MEMB     102      POPC     H91      HEL1     0.150000       1.00800           0
     13577 MEMB     102      POPC     C210     CEL1    -0.150000       12.0110           0
     13578 MEMB     102      POPC     H101     HEL1     0.150000       1.00800           0
     13579 MEMB     102      POPC     C211     CTL2    -0.180000       12.0110           0
     13580 MEMB     102      POPC     H11R     HAL2     0.900000E-01   1.00800           0
     13581 MEMB     102      POPC     H11S     HAL2     0.900000E-01   1.00800           0
     13582 MEMB     102      POPC     C212     CTL2    -0.180000       12.0110           0
     13583 MEMB     102      POPC     H12R     HAL2     0.900000E-01   1.00800           0
     13584 MEMB     102      POPC     H12S     HAL2     0.900000E-01   1.00800           0
     13585 MEMB     102      POPC     C213     CTL2    -0.180000       12.0110           0
     13586 MEMB     102      POPC     H13R     HAL2     0.900000E-01   1.00800           0
     13587 MEMB     102      POPC     H13S     HAL2     0.900000E-01   1.00800           0
     13588 MEMB     102      POPC     C214     CTL2    -0.180000       12.0110           0
     13589 MEMB     102      POPC     H14R     HAL2     0.900000E-01   1.00800           0
     13590 MEMB     102      POPC     H14S     HAL2     0.900000E-01   1.00800           0
     13591 MEMB     102      POPC     C215     CTL2    -0.180000       12.0110           0
     13592 MEMB     102      POPC     H15R     HAL2     0.900000E-01   1.00800           0
     13593 MEMB     102      POPC     H15S     HAL2     0.900000E-01   1.00800           0
     13594 MEMB     102      POPC     C216     CTL2    -0.180000       12.0110           0
     13595 MEMB     102      POPC     H16R     HAL2     0.900000E-01   1.00800           0
     13596 MEMB     102      POPC     H16S     HAL2     0.900000E-01   1.00800           0
     13597 MEMB     102      POPC     C217     CTL2    -0.180000       12.0110           0
     13598 MEMB     102      POPC     H17R     HAL2     0.900000E-01   1.00800           0
     13599 MEMB     102      POPC     H17S     HAL2     0.900000E-01   1.00800           0
     13600 MEMB     102      POPC     C218     CTL3    -0.270000       12.0110           0
     13601 MEMB     102      POPC     H18R     HAL3     0.900000E-01   1.00800           0
     13602 MEMB     102      POPC     H18S     HAL3     0.900000E-01   1.00800           0
     13603 MEMB     102      POPC     H18T     HAL3     0.900000E-01   1.00800           0
     13604 MEMB     102      POPC     C33      CTL2    -0.180000       12.0110           0
     13605 MEMB     102      POPC     H3X      HAL2     0.900000E-01   1.00800           0
     13606 MEMB     102      POPC     H3Y      HAL2     0.900000E-01   1.00800           0
     13607 MEMB     102      POPC     C34      CTL2    -0.180000       12.0110           0
     13608 MEMB     102      POPC     H4X      HAL2     0.900000E-01   1.00800           0
     13609 MEMB     102      POPC     H4Y      HAL2     0.900000E-01   1.00800           0
     13610 MEMB     102      POPC     C35      CTL2    -0.180000       12.0110           0
     13611 MEMB     102      POPC     H5X      HAL2     0.900000E-01   1.00800           0
     13612 MEMB     102      POPC     H5Y      HAL2     0.900000E-01   1.00800           0
     13613 MEMB     102      POPC     C36      CTL2    -0.180000       12.0110           0
     13614 MEMB     102      POPC     H6X      HAL2     0.900000E-01   1.00800           0
     13615 MEMB     102      POPC     H6Y      HAL2     0.900000E-01   1.00800           0
     13616 MEMB     102      POPC     C37      CTL2    -0.180000       12.0110           0
     13617 MEMB     102      POPC     H7X      HAL2     0.900000E-01   1.00800           0
     13618 MEMB     102      POPC     H7Y      HAL2     0.900000E-01   1.00800           0
     13619 MEMB     102      POPC     C38      CTL2    -0.180000       12.0110           0
     13620 MEMB     102      POPC     H8X      HAL2     0.900000E-01   1.00800           0
     13621 MEMB     102      POPC     H8Y      HAL2     0.900000E-01   1.00800           0
     13622 MEMB     102      POPC     C39      CTL2    -0.180000       12.0110           0
     13623 MEMB     102      POPC     H9X      HAL2     0.900000E-01   1.00800           0
     13624 MEMB     102      POPC     H9Y      HAL2     0.900000E-01   1.00800           0
     13625 MEMB     102      POPC     C310     CTL2    -0.180000       12.0110           0
     13626 MEMB     102      POPC     H10X     HAL2     0.900000E-01   1.00800           0
     13627 MEMB     102      POPC     H10Y     HAL2     0.900000E-01   1.00800           0
     13628 MEMB     102      POPC     C311     CTL2    -0.180000       12.0110           0
     13629 MEMB     102      POPC     H11X     HAL2     0.900000E-01   1.00800           0
     13630 MEMB     102      POPC     H11Y     HAL2     0.900000E-01   1.00800           0
     13631 MEMB     102      POPC     C312     CTL2    -0.180000       12.0110           0
     13632 MEMB     102      POPC     H12X     HAL2     0.900000E-01   1.00800           0
     13633 MEMB     102      POPC     H12Y     HAL2     0.900000E-01   1.00800           0
     13634 MEMB     102      POPC     C313     CTL2    -0.180000       12.0110           0
     13635 MEMB     102      POPC     H13X     HAL2     0.900000E-01   1.00800           0
     13636 MEMB     102      POPC     H13Y     HAL2     0.900000E-01   1.00800           0
     13637 MEMB     102      POPC     C314     CTL2    -0.180000       12.0110           0
     13638 MEMB     102      POPC     H14X     HAL2     0.900000E-01   1.00800           0
     13639 MEMB     102      POPC     H14Y     HAL2     0.900000E-01   1.00800           0
     13640 MEMB     102      POPC     C315     CTL2    -0.180000       12.0110           0
     13641 MEMB     102      POPC     H15X     HAL2     0.900000E-01   1.00800           0
     13642 MEMB     102      POPC     H15Y     HAL2     0.900000E-01   1.00800           0
     13643 MEMB     102      POPC     C316     CTL3    -0.270000       12.0110           0
     13644 MEMB     102      POPC     H16X     HAL3     0.900000E-01   1.00800           0
     13645 MEMB     102      POPC     H16Y     HAL3     0.900000E-01   1.00800           0
     13646 MEMB     102      POPC     H16Z     HAL3     0.900000E-01   1.00800           0
     13647 MEMB     103      POPS     N        NH3L    -0.300000       14.0070           0
     13648 MEMB     103      POPS     HN1      HCL      0.330000       1.00800           0
     13649 MEMB     103      POPS     HN2      HCL      0.330000       1.00800           0
     13650 MEMB     103      POPS     HN3      HCL      0.330000       1.00800           0
     13651 MEMB     103      POPS     C12      CTL1     0.210000       12.0110           0
     13652 MEMB     103      POPS     H12A     HBL      0.100000       1.00800           0
     13653 MEMB     103      POPS     C13      CCL      0.340000       12.0110           0
     13654 MEMB     103      POPS     O13A     OCL     -0.670000       15.9994           0
     13655 MEMB     103      POPS     O13B     OCL     -0.670000       15.9994           0
     13656 MEMB     103      POPS     C11      CTL2    -0.800000E-01   12.0110           0
     13657 MEMB     103      POPS     H11A     HAL2     0.900000E-01   1.00800           0
     13658 MEMB     103      POPS     H11B     HAL2     0.900000E-01   1.00800           0
     13659 MEMB     103      POPS     P        PL        1.50000       30.9740           0
     13660 MEMB     103      POPS     O13      O2L     -0.780000       15.9994           0
     13661 MEMB     103      POPS     O14      O2L     -0.780000       15.9994           0
     13662 MEMB     103      POPS     O12      OSLP    -0.570000       15.9994           0
     13663 MEMB     103      POPS     O11      OSLP    -0.570000       15.9994           0
     13664 MEMB     103      POPS     C1       CTL2    -0.800000E-01   12.0110           0
     13665 MEMB     103      POPS     HA       HAL2     0.900000E-01   1.00800           0
     13666 MEMB     103      POPS     HB       HAL2     0.900000E-01   1.00800           0
     13667 MEMB     103      POPS     C2       CTL1     0.170000       12.0110           0
     13668 MEMB     103      POPS     HS       HAL1     0.900000E-01   1.00800           0
     13669 MEMB     103      POPS     O21      OSL     -0.490000       15.9994           0
     13670 MEMB     103      POPS     C21      CL       0.900000       12.0110           0
     13671 MEMB     103      POPS     O22      OBL     -0.630000       15.9994           0
     13672 MEMB     103      POPS     C22      CTL2    -0.220000       12.0110           0
     13673 MEMB     103      POPS     H2R      HAL2     0.900000E-01   1.00800           0
     13674 MEMB     103      POPS     H2S      HAL2     0.900000E-01   1.00800           0
     13675 MEMB     103      POPS     C3       CTL2     0.800000E-01   12.0110           0
     13676 MEMB     103      POPS     HX       HAL2     0.900000E-01   1.00800           0
     13677 MEMB     103      POPS     HY       HAL2     0.900000E-01   1.00800           0
     13678 MEMB     103      POPS     O31      OSL     -0.490000       15.9994           0
     13679 MEMB     103      POPS     C31      CL       0.900000       12.0110           0
     13680 MEMB     103      POPS     O32      OBL     -0.630000       15.9994           0
     13681 MEMB     103      POPS     C32      CTL2    -0.220000       12.0110           0
     13682 MEMB     103      POPS     H2X      HAL2     0.900000E-01   1.00800           0
     13683 MEMB     103      POPS     H2Y      HAL2     0.900000E-01   1.00800           0
     13684 MEMB     103      POPS     C23      CTL2    -0.180000       12.0110           0
     13685 MEMB     103      POPS     H3R      HAL2     0.900000E-01   1.00800           0
     13686 MEMB     103      POPS     H3S      HAL2     0.900000E-01   1.00800           0
     13687 MEMB     103      POPS     C24      CTL2    -0.180000       12.0110           0
     13688 MEMB     103      POPS     H4R      HAL2     0.900000E-01   1.00800           0
     13689 MEMB     103      POPS     H4S      HAL2     0.900000E-01   1.00800           0
     13690 MEMB     103      POPS     C25      CTL2    -0.180000       12.0110           0
     13691 MEMB     103      POPS     H5R      HAL2     0.900000E-01   1.00800           0
     13692 MEMB     103      POPS     H5S      HAL2     0.900000E-01   1.00800           0
     13693 MEMB     103      POPS     C26      CTL2    -0.180000       12.0110           0
     13694 MEMB     103      POPS     H6R      HAL2     0.900000E-01   1.00800           0
     13695 MEMB     103      POPS     H6S      HAL2     0.900000E-01   1.00800           0
     13696 MEMB     103      POPS     C27      CTL2    -0.180000       12.0110           0
     13697 MEMB     103      POPS     H7R      HAL2     0.900000E-01   1.00800           0
     13698 MEMB     103      POPS     H7S      HAL2     0.900000E-01   1.00800           0
     13699 MEMB     103      POPS     C28      CTL2    -0.180000       12.0110           0
     13700 MEMB     103      POPS     H8R      HAL2     0.900000E-01   1.00800           0
     13701 MEMB     103      POPS     H8S      HAL2     0.900000E-01   1.00800           0
     13702 MEMB     103      POPS     C29      CEL1    -0.150000       12.0110           0
     13703 MEMB     103      POPS     H91      HEL1     0.150000       1.00800           0
     13704 MEMB     103      POPS     C210     CEL1    -0.150000       12.0110           0
     13705 MEMB     103      POPS     H101     HEL1     0.150000       1.00800           0
     13706 MEMB     103      POPS     C211     CTL2    -0.180000       12.0110           0
     13707 MEMB     103      POPS     H11R     HAL2     0.900000E-01   1.00800           0
     13708 MEMB     103      POPS     H11S     HAL2     0.900000E-01   1.00800           0
     13709 MEMB     103      POPS     C212     CTL2    -0.180000       12.0110           0
     13710 MEMB     103      POPS     H12R     HAL2     0.900000E-01   1.00800           0
     13711 MEMB     103      POPS     H12S     HAL2     0.900000E-01   1.00800           0
     13712 MEMB     103      POPS     C213     CTL2    -0.180000       12.0110           0
     13713 MEMB     103      POPS     H13R     HAL2     0.900000E-01   1.00800           0
     13714 MEMB     103      POPS     H13S     HAL2     0.900000E-01   1.00800           0
     13715 MEMB     103      POPS     C214     CTL2    -0.180000       12.0110           0
     13716 MEMB     103      POPS     H14R     HAL2     0.900000E-01   1.00800           0
     13717 MEMB     103      POPS     H14S     HAL2     0.900000E-01   1.00800           0
     13718 MEMB     103      POPS     C215     CTL2    -0.180000       12.0110           0
     13719 MEMB     103      POPS     H15R     HAL2     0.900000E-01   1.00800           0
     13720 MEMB     103      POPS     H15S     HAL2     0.900000E-01   1.00800           0
     13721 MEMB     103      POPS     C216     CTL2    -0.180000       12.0110           0
     13722 MEMB     103      POPS     H16R     HAL2     0.900000E-01   1.00800           0
     13723 MEMB     103      POPS     H16S     HAL2     0.900000E-01   1.00800           0
     13724 MEMB     103      POPS     C217     CTL2    -0.180000       12.0110           0
     13725 MEMB     103      POPS     H17R     HAL2     0.900000E-01   1.00800           0
     13726 MEMB     103      POPS     H17S     HAL2     0.900000E-01   1.00800           0
     13727 MEMB     103      POPS     C218     CTL3    -0.270000       12.0110           0
     13728 MEMB     103      POPS     H18R     HAL3     0.900000E-01   1.00800           0
     13729 MEMB     103      POPS     H18S     HAL3     0.900000E-01   1.00800           0
     13730 MEMB     103      POPS     H18T     HAL3     0.900000E-01   1.00800           0
     13731 MEMB     103      POPS     C33      CTL2    -0.180000       12.0110           0
     13732 MEMB     103      POPS     H3X      HAL2     0.900000E-01   1.00800           0
     13733 MEMB     103      POPS     H3Y      HAL2     0.900000E-01   1.00800           0
     13734 MEMB     103      POPS     C34      CTL2    -0.180000       12.0110           0
     13735 MEMB     103      POPS     H4X      HAL2     0.900000E-01   1.00800           0
     13736 MEMB     103      POPS     H4Y      HAL2     0.900000E-01   1.00800           0
     13737 MEMB     103      POPS     C35      CTL2    -0.180000       12.0110           0
     13738 MEMB     103      POPS     H5X      HAL2     0.900000E-01   1.00800           0
     13739 MEMB     103      POPS     H5Y      HAL2     0.900000E-01   1.00800           0
     13740 MEMB     103      POPS     C36      CTL2    -0.180000       12.0110           0
     13741 MEMB     103      POPS     H6X      HAL2     0.900000E-01   1.00800           0
     13742 MEMB     103      POPS     H6Y      HAL2     0.900000E-01   1.00800           0
     13743 MEMB     103      POPS     C37      CTL2    -0.180000       12.0110           0
     13744 MEMB     103      POPS     H7X      HAL2     0.900000E-01   1.00800           0
     13745 MEMB     103      POPS     H7Y      HAL2     0.900000E-01   1.00800           0
     13746 MEMB     103      POPS     C38      CTL2    -0.180000       12.0110           0
     13747 MEMB     103      POPS     H8X      HAL2     0.900000E-01   1.00800           0
     13748 MEMB     103      POPS     H8Y      HAL2     0.900000E-01   1.00800           0
     13749 MEMB     103      POPS     C39      CTL2    -0.180000       12.0110           0
     13750 MEMB     103      POPS     H9X      HAL2     0.900000E-01   1.00800           0
     13751 MEMB     103      POPS     H9Y      HAL2     0.900000E-01   1.00800           0
     13752 MEMB     103      POPS     C310     CTL2    -0.180000       12.0110           0
     13753 MEMB     103      POPS     H10X     HAL2     0.900000E-01   1.00800           0
     13754 MEMB     103      POPS     H10Y     HAL2     0.900000E-01   1.00800           0
     13755 MEMB     103      POPS     C311     CTL2    -0.180000       12.0110           0
     13756 MEMB     103      POPS     H11X     HAL2     0.900000E-01   1.00800           0
     13757 MEMB     103      POPS     H11Y     HAL2     0.900000E-01   1.00800           0
     13758 MEMB     103      POPS     C312     CTL2    -0.180000       12.0110           0
     13759 MEMB     103      POPS     H12X     HAL2     0.900000E-01   1.00800           0
     13760 MEMB     103      POPS     H12Y     HAL2     0.900000E-01   1.00800           0
     13761 MEMB     103      POPS     C313     CTL2    -0.180000       12.0110           0
     13762 MEMB     103      POPS     H13X     HAL2     0.900000E-01   1.00800           0
     13763 MEMB     103      POPS     H13Y     HAL2     0.900000E-01   1.00800           0
     13764 MEMB     103      POPS     C314     CTL2    -0.180000       12.0110           0
     13765 MEMB     103      POPS     H14X     HAL2     0.900000E-01   1.00800           0
     13766 MEMB     103      POPS     H14Y     HAL2     0.900000E-01   1.00800           0
     13767 MEMB     103      POPS     C315     CTL2    -0.180000       12.0110           0
     13768 MEMB     103      POPS     H15X     HAL2     0.900000E-01   1.00800           0
     13769 MEMB     103      POPS     H15Y     HAL2     0.900000E-01   1.00800           0
     13770 MEMB     103      POPS     C316     CTL3    -0.270000       12.0110           0
     13771 MEMB     103      POPS     H16X     HAL3     0.900000E-01   1.00800           0
     13772 MEMB     103      POPS     H16Y     HAL3     0.900000E-01   1.00800           0
     13773 MEMB     103      POPS     H16Z     HAL3     0.900000E-01   1.00800           0
     13774 MEMB     104      POPC     N        NTL     -0.600000       14.0070           0
     13775 MEMB     104      POPC     C12      CTL2    -0.100000       12.0110           0
     13776 MEMB     104      POPC     H12A     HL       0.250000       1.00800           0
     13777 MEMB     104      POPC     H12B     HL       0.250000       1.00800           0
     13778 MEMB     104      POPC     C13      CTL5    -0.350000       12.0110           0
     13779 MEMB     104      POPC     H13A     HL       0.250000       1.00800           0
     13780 MEMB     104      POPC     H13B     HL       0.250000       1.00800           0
     13781 MEMB     104      POPC     H13C     HL       0.250000       1.00800           0
     13782 MEMB     104      POPC     C14      CTL5    -0.350000       12.0110           0
     13783 MEMB     104      POPC     H14A     HL       0.250000       1.00800           0
     13784 MEMB     104      POPC     H14B     HL       0.250000       1.00800           0
     13785 MEMB     104      POPC     H14C     HL       0.250000       1.00800           0
     13786 MEMB     104      POPC     C15      CTL5    -0.350000       12.0110           0
     13787 MEMB     104      POPC     H15A     HL       0.250000       1.00800           0
     13788 MEMB     104      POPC     H15B     HL       0.250000       1.00800           0
     13789 MEMB     104      POPC     H15C     HL       0.250000       1.00800           0
     13790 MEMB     104      POPC     C11      CTL2    -0.800000E-01   12.0110           0
     13791 MEMB     104      POPC     H11A     HAL2     0.900000E-01   1.00800           0
     13792 MEMB     104      POPC     H11B     HAL2     0.900000E-01   1.00800           0
     13793 MEMB     104      POPC     P        PL        1.50000       30.9740           0
     13794 MEMB     104      POPC     O13      O2L     -0.780000       15.9994           0
     13795 MEMB     104      POPC     O14      O2L     -0.780000       15.9994           0
     13796 MEMB     104      POPC     O12      OSLP    -0.570000       15.9994           0
     13797 MEMB     104      POPC     O11      OSLP    -0.570000       15.9994           0
     13798 MEMB     104      POPC     C1       CTL2    -0.800000E-01   12.0110           0
     13799 MEMB     104      POPC     HA       HAL2     0.900000E-01   1.00800           0
     13800 MEMB     104      POPC     HB       HAL2     0.900000E-01   1.00800           0
     13801 MEMB     104      POPC     C2       CTL1     0.170000       12.0110           0
     13802 MEMB     104      POPC     HS       HAL1     0.900000E-01   1.00800           0
     13803 MEMB     104      POPC     O21      OSL     -0.490000       15.9994           0
     13804 MEMB     104      POPC     C21      CL       0.900000       12.0110           0
     13805 MEMB     104      POPC     O22      OBL     -0.630000       15.9994           0
     13806 MEMB     104      POPC     C22      CTL2    -0.220000       12.0110           0
     13807 MEMB     104      POPC     H2R      HAL2     0.900000E-01   1.00800           0
     13808 MEMB     104      POPC     H2S      HAL2     0.900000E-01   1.00800           0
     13809 MEMB     104      POPC     C3       CTL2     0.800000E-01   12.0110           0
     13810 MEMB     104      POPC     HX       HAL2     0.900000E-01   1.00800           0
     13811 MEMB     104      POPC     HY       HAL2     0.900000E-01   1.00800           0
     13812 MEMB     104      POPC     O31      OSL     -0.490000       15.9994           0
     13813 MEMB     104      POPC     C31      CL       0.900000       12.0110           0
     13814 MEMB     104      POPC     O32      OBL     -0.630000       15.9994           0
     13815 MEMB     104      POPC     C32      CTL2    -0.220000       12.0110           0
     13816 MEMB     104      POPC     H2X      HAL2     0.900000E-01   1.00800           0
     13817 MEMB     104      POPC     H2Y      HAL2     0.900000E-01   1.00800           0
     13818 MEMB     104      POPC     C23      CTL2    -0.180000       12.0110           0
     13819 MEMB     104      POPC     H3R      HAL2     0.900000E-01   1.00800           0
     13820 MEMB     104      POPC     H3S      HAL2     0.900000E-01   1.00800           0
     13821 MEMB     104      POPC     C24      CTL2    -0.180000       12.0110           0
     13822 MEMB     104      POPC     H4R      HAL2     0.900000E-01   1.00800           0
     13823 MEMB     104      POPC     H4S      HAL2     0.900000E-01   1.00800           0
     13824 MEMB     104      POPC     C25      CTL2    -0.180000       12.0110           0
     13825 MEMB     104      POPC     H5R      HAL2     0.900000E-01   1.00800           0
     13826 MEMB     104      POPC     H5S      HAL2     0.900000E-01   1.00800           0
     13827 MEMB     104      POPC     C26      CTL2    -0.180000       12.0110           0
     13828 MEMB     104      POPC     H6R      HAL2     0.900000E-01   1.00800           0
     13829 MEMB     104      POPC     H6S      HAL2     0.900000E-01   1.00800           0
     13830 MEMB     104      POPC     C27      CTL2    -0.180000       12.0110           0
     13831 MEMB     104      POPC     H7R      HAL2     0.900000E-01   1.00800           0
     13832 MEMB     104      POPC     H7S      HAL2     0.900000E-01   1.00800           0
     13833 MEMB     104      POPC     C28      CTL2    -0.180000       12.0110           0
     13834 MEMB     104      POPC     H8R      HAL2     0.900000E-01   1.00800           0
     13835 MEMB     104      POPC     H8S      HAL2     0.900000E-01   1.00800           0
     13836 MEMB     104      POPC     C29      CEL1    -0.150000       12.0110           0
     13837 MEMB     104      POPC     H91      HEL1     0.150000       1.00800           0
     13838 MEMB     104      POPC     C210     CEL1    -0.150000       12.0110           0
     13839 MEMB     104      POPC     H101     HEL1     0.150000       1.00800           0
     13840 MEMB     104      POPC     C211     CTL2    -0.180000       12.0110           0
     13841 MEMB     104      POPC     H11R     HAL2     0.900000E-01   1.00800           0
     13842 MEMB     104      POPC     H11S     HAL2     0.900000E-01   1.00800           0
     13843 MEMB     104      POPC     C212     CTL2    -0.180000       12.0110           0
     13844 MEMB     104      POPC     H12R     HAL2     0.900000E-01   1.00800           0
     13845 MEMB     104      POPC     H12S     HAL2     0.900000E-01   1.00800           0
     13846 MEMB     104      POPC     C213     CTL2    -0.180000       12.0110           0
     13847 MEMB     104      POPC     H13R     HAL2     0.900000E-01   1.00800           0
     13848 MEMB     104      POPC     H13S     HAL2     0.900000E-01   1.00800           0
     13849 MEMB     104      POPC     C214     CTL2    -0.180000       12.0110           0
     13850 MEMB     104      POPC     H14R     HAL2     0.900000E-01   1.00800           0
     13851 MEMB     104      POPC     H14S     HAL2     0.900000E-01   1.00800           0
     13852 MEMB     104      POPC     C215     CTL2    -0.180000       12.0110           0
     13853 MEMB     104      POPC     H15R     HAL2     0.900000E-01   1.00800           0
     13854 MEMB     104      POPC     H15S     HAL2     0.900000E-01   1.00800           0
     13855 MEMB     104      POPC     C216     CTL2    -0.180000       12.0110           0
     13856 MEMB     104      POPC     H16R     HAL2     0.900000E-01   1.00800           0
     13857 MEMB     104      POPC     H16S     HAL2     0.900000E-01   1.00800           0
     13858 MEMB     104      POPC     C217     CTL2    -0.180000       12.0110           0
     13859 MEMB     104      POPC     H17R     HAL2     0.900000E-01   1.00800           0
     13860 MEMB     104      POPC     H17S     HAL2     0.900000E-01   1.00800           0
     13861 MEMB     104      POPC     C218     CTL3    -0.270000       12.0110           0
     13862 MEMB     104      POPC     H18R     HAL3     0.900000E-01   1.00800           0
     13863 MEMB     104      POPC     H18S     HAL3     0.900000E-01   1.00800           0
     13864 MEMB     104      POPC     H18T     HAL3     0.900000E-01   1.00800           0
     13865 MEMB     104      POPC     C33      CTL2    -0.180000       12.0110           0
     13866 MEMB     104      POPC     H3X      HAL2     0.900000E-01   1.00800           0
     13867 MEMB     104      POPC     H3Y      HAL2     0.900000E-01   1.00800           0
     13868 MEMB     104      POPC     C34      CTL2    -0.180000       12.0110           0
     13869 MEMB     104      POPC     H4X      HAL2     0.900000E-01   1.00800           0
     13870 MEMB     104      POPC     H4Y      HAL2     0.900000E-01   1.00800           0
     13871 MEMB     104      POPC     C35      CTL2    -0.180000       12.0110           0
     13872 MEMB     104      POPC     H5X      HAL2     0.900000E-01   1.00800           0
     13873 MEMB     104      POPC     H5Y      HAL2     0.900000E-01   1.00800           0
     13874 MEMB     104      POPC     C36      CTL2    -0.180000       12.0110           0
     13875 MEMB     104      POPC     H6X      HAL2     0.900000E-01   1.00800           0
     13876 MEMB     104      POPC     H6Y      HAL2     0.900000E-01   1.00800           0
     13877 MEMB     104      POPC     C37      CTL2    -0.180000       12.0110           0
     13878 MEMB     104      POPC     H7X      HAL2     0.900000E-01   1.00800           0
     13879 MEMB     104      POPC     H7Y      HAL2     0.900000E-01   1.00800           0
     13880 MEMB     104      POPC     C38      CTL2    -0.180000       12.0110           0
     13881 MEMB     104      POPC     H8X      HAL2     0.900000E-01   1.00800           0
     13882 MEMB     104      POPC     H8Y      HAL2     0.900000E-01   1.00800           0
     13883 MEMB     104      POPC     C39      CTL2    -0.180000       12.0110           0
     13884 MEMB     104      POPC     H9X      HAL2     0.900000E-01   1.00800           0
     13885 MEMB     104      POPC     H9Y      HAL2     0.900000E-01   1.00800           0
     13886 MEMB     104      POPC     C310     CTL2    -0.180000       12.0110           0
     13887 MEMB     104      POPC     H10X     HAL2     0.900000E-01   1.00800           0
     13888 MEMB     104      POPC     H10Y     HAL2     0.900000E-01   1.00800           0
     13889 MEMB     104      POPC     C311     CTL2    -0.180000       12.0110           0
     13890 MEMB     104      POPC     H11X     HAL2     0.900000E-01   1.00800           0
     13891 MEMB     104      POPC     H11Y     HAL2     0.900000E-01   1.00800           0
     13892 MEMB     104      POPC     C312     CTL2    -0.180000       12.0110           0
     13893 MEMB     104      POPC     H12X     HAL2     0.900000E-01   1.00800           0
     13894 MEMB     104      POPC     H12Y     HAL2     0.900000E-01   1.00800           0
     13895 MEMB     104      POPC     C313     CTL2    -0.180000       12.0110           0
     13896 MEMB     104      POPC     H13X     HAL2     0.900000E-01   1.00800           0
     13897 MEMB     104      POPC     H13Y     HAL2     0.900000E-01   1.00800           0
     13898 MEMB     104      POPC     C314     CTL2    -0.180000       12.0110           0
     13899 MEMB     104      POPC     H14X     HAL2     0.900000E-01   1.00800           0
     13900 MEMB     104      POPC     H14Y     HAL2     0.900000E-01   1.00800           0
     13901 MEMB     104      POPC     C315     CTL2    -0.180000       12.0110           0
     13902 MEMB     104      POPC     H15X     HAL2     0.900000E-01   1.00800           0
     13903 MEMB     104      POPC     H15Y     HAL2     0.900000E-01   1.00800           0
     13904 MEMB     104      POPC     C316     CTL3    -0.270000       12.0110           0
     13905 MEMB     104      POPC     H16X     HAL3     0.900000E-01   1.00800           0
     13906 MEMB     104      POPC     H16Y     HAL3     0.900000E-01   1.00800           0
     13907 MEMB     104      POPC     H16Z     HAL3     0.900000E-01   1.00800           0
     13908 MEMB     105      POPC     N        NTL     -0.600000       14.0070           0
     13909 MEMB     105      POPC     C12      CTL2    -0.100000       12.0110           0
     13910 MEMB     105      POPC     H12A     HL       0.250000       1.00800           0
     13911 MEMB     105      POPC     H12B     HL       0.250000       1.00800           0
     13912 MEMB     105      POPC     C13      CTL5    -0.350000       12.0110           0
     13913 MEMB     105      POPC     H13A     HL       0.250000       1.00800           0
     13914 MEMB     105      POPC     H13B     HL       0.250000       1.00800           0
     13915 MEMB     105      POPC     H13C     HL       0.250000       1.00800           0
     13916 MEMB     105      POPC     C14      CTL5    -0.350000       12.0110           0
     13917 MEMB     105      POPC     H14A     HL       0.250000       1.00800           0
     13918 MEMB     105      POPC     H14B     HL       0.250000       1.00800           0
     13919 MEMB     105      POPC     H14C     HL       0.250000       1.00800           0
     13920 MEMB     105      POPC     C15      CTL5    -0.350000       12.0110           0
     13921 MEMB     105      POPC     H15A     HL       0.250000       1.00800           0
     13922 MEMB     105      POPC     H15B     HL       0.250000       1.00800           0
     13923 MEMB     105      POPC     H15C     HL       0.250000       1.00800           0
     13924 MEMB     105      POPC     C11      CTL2    -0.800000E-01   12.0110           0
     13925 MEMB     105      POPC     H11A     HAL2     0.900000E-01   1.00800           0
     13926 MEMB     105      POPC     H11B     HAL2     0.900000E-01   1.00800           0
     13927 MEMB     105      POPC     P        PL        1.50000       30.9740           0
     13928 MEMB     105      POPC     O13      O2L     -0.780000       15.9994           0
     13929 MEMB     105      POPC     O14      O2L     -0.780000       15.9994           0
     13930 MEMB     105      POPC     O12      OSLP    -0.570000       15.9994           0
     13931 MEMB     105      POPC     O11      OSLP    -0.570000       15.9994           0
     13932 MEMB     105      POPC     C1       CTL2    -0.800000E-01   12.0110           0
     13933 MEMB     105      POPC     HA       HAL2     0.900000E-01   1.00800           0
     13934 MEMB     105      POPC     HB       HAL2     0.900000E-01   1.00800           0
     13935 MEMB     105      POPC     C2       CTL1     0.170000       12.0110           0
     13936 MEMB     105      POPC     HS       HAL1     0.900000E-01   1.00800           0
     13937 MEMB     105      POPC     O21      OSL     -0.490000       15.9994           0
     13938 MEMB     105      POPC     C21      CL       0.900000       12.0110           0
     13939 MEMB     105      POPC     O22      OBL     -0.630000       15.9994           0
     13940 MEMB     105      POPC     C22      CTL2    -0.220000       12.0110           0
     13941 MEMB     105      POPC     H2R      HAL2     0.900000E-01   1.00800           0
     13942 MEMB     105      POPC     H2S      HAL2     0.900000E-01   1.00800           0
     13943 MEMB     105      POPC     C3       CTL2     0.800000E-01   12.0110           0
     13944 MEMB     105      POPC     HX       HAL2     0.900000E-01   1.00800           0
     13945 MEMB     105      POPC     HY       HAL2     0.900000E-01   1.00800           0
     13946 MEMB     105      POPC     O31      OSL     -0.490000       15.9994           0
     13947 MEMB     105      POPC     C31      CL       0.900000       12.0110           0
     13948 MEMB     105      POPC     O32      OBL     -0.630000       15.9994           0
     13949 MEMB     105      POPC     C32      CTL2    -0.220000       12.0110           0
     13950 MEMB     105      POPC     H2X      HAL2     0.900000E-01   1.00800           0
     13951 MEMB     105      POPC     H2Y      HAL2     0.900000E-01   1.00800           0
     13952 MEMB     105      POPC     C23      CTL2    -0.180000       12.0110           0
     13953 MEMB     105      POPC     H3R      HAL2     0.900000E-01   1.00800           0
     13954 MEMB     105      POPC     H3S      HAL2     0.900000E-01   1.00800           0
     13955 MEMB     105      POPC     C24      CTL2    -0.180000       12.0110           0
     13956 MEMB     105      POPC     H4R      HAL2     0.900000E-01   1.00800           0
     13957 MEMB     105      POPC     H4S      HAL2     0.900000E-01   1.00800           0
     13958 MEMB     105      POPC     C25      CTL2    -0.180000       12.0110           0
     13959 MEMB     105      POPC     H5R      HAL2     0.900000E-01   1.00800           0
     13960 MEMB     105      POPC     H5S      HAL2     0.900000E-01   1.00800           0
     13961 MEMB     105      POPC     C26      CTL2    -0.180000       12.0110           0
     13962 MEMB     105      POPC     H6R      HAL2     0.900000E-01   1.00800           0
     13963 MEMB     105      POPC     H6S      HAL2     0.900000E-01   1.00800           0
     13964 MEMB     105      POPC     C27      CTL2    -0.180000       12.0110           0
     13965 MEMB     105      POPC     H7R      HAL2     0.900000E-01   1.00800           0
     13966 MEMB     105      POPC     H7S      HAL2     0.900000E-01   1.00800           0
     13967 MEMB     105      POPC     C28      CTL2    -0.180000       12.0110           0
     13968 MEMB     105      POPC     H8R      HAL2     0.900000E-01   1.00800           0
     13969 MEMB     105      POPC     H8S      HAL2     0.900000E-01   1.00800           0
     13970 MEMB     105      POPC     C29      CEL1    -0.150000       12.0110           0
     13971 MEMB     105      POPC     H91      HEL1     0.150000       1.00800           0
     13972 MEMB     105      POPC     C210     CEL1    -0.150000       12.0110           0
     13973 MEMB     105      POPC     H101     HEL1     0.150000       1.00800           0
     13974 MEMB     105      POPC     C211     CTL2    -0.180000       12.0110           0
     13975 MEMB     105      POPC     H11R     HAL2     0.900000E-01   1.00800           0
     13976 MEMB     105      POPC     H11S     HAL2     0.900000E-01   1.00800           0
     13977 MEMB     105      POPC     C212     CTL2    -0.180000       12.0110           0
     13978 MEMB     105      POPC     H12R     HAL2     0.900000E-01   1.00800           0
     13979 MEMB     105      POPC     H12S     HAL2     0.900000E-01   1.00800           0
     13980 MEMB     105      POPC     C213     CTL2    -0.180000       12.0110           0
     13981 MEMB     105      POPC     H13R     HAL2     0.900000E-01   1.00800           0
     13982 MEMB     105      POPC     H13S     HAL2     0.900000E-01   1.00800           0
     13983 MEMB     105      POPC     C214     CTL2    -0.180000       12.0110           0
     13984 MEMB     105      POPC     H14R     HAL2     0.900000E-01   1.00800           0
     13985 MEMB     105      POPC     H14S     HAL2     0.900000E-01   1.00800           0
     13986 MEMB     105      POPC     C215     CTL2    -0.180000       12.0110           0
     13987 MEMB     105      POPC     H15R     HAL2     0.900000E-01   1.00800           0
     13988 MEMB     105      POPC     H15S     HAL2     0.900000E-01   1.00800           0
     13989 MEMB     105      POPC     C216     CTL2    -0.180000       12.0110           0
     13990 MEMB     105      POPC     H16R     HAL2     0.900000E-01   1.00800           0
     13991 MEMB     105      POPC     H16S     HAL2     0.900000E-01   1.00800           0
     13992 MEMB     105      POPC     C217     CTL2    -0.180000       12.0110           0
     13993 MEMB     105      POPC     H17R     HAL2     0.900000E-01   1.00800           0
     13994 MEMB     105      POPC     H17S     HAL2     0.900000E-01   1.00800           0
     13995 MEMB     105      POPC     C218     CTL3    -0.270000       12.0110           0
     13996 MEMB     105      POPC     H18R     HAL3     0.900000E-01   1.00800           0
     13997 MEMB     105      POPC     H18S     HAL3     0.900000E-01   1.00800           0
     13998 MEMB     105      POPC     H18T     HAL3     0.900000E-01   1.00800           0
     13999 MEMB     105      POPC     C33      CTL2    -0.180000       12.0110           0
     14000 MEMB     105      POPC     H3X      HAL2     0.900000E-01   1.00800           0
     14001 MEMB     105      POPC     H3Y      HAL2     0.900000E-01   1.00800           0
     14002 MEMB     105      POPC     C34      CTL2    -0.180000       12.0110           0
     14003 MEMB     105      POPC     H4X      HAL2     0.900000E-01   1.00800           0
     14004 MEMB     105      POPC     H4Y      HAL2     0.900000E-01   1.00800           0
     14005 MEMB     105      POPC     C35      CTL2    -0.180000       12.0110           0
     14006 MEMB     105      POPC     H5X      HAL2     0.900000E-01   1.00800           0
     14007 MEMB     105      POPC     H5Y      HAL2     0.900000E-01   1.00800           0
     14008 MEMB     105      POPC     C36      CTL2    -0.180000       12.0110           0
     14009 MEMB     105      POPC     H6X      HAL2     0.900000E-01   1.00800           0
     14010 MEMB     105      POPC     H6Y      HAL2     0.900000E-01   1.00800           0
     14011 MEMB     105      POPC     C37      CTL2    -0.180000       12.0110           0
     14012 MEMB     105      POPC     H7X      HAL2     0.900000E-01   1.00800           0
     14013 MEMB     105      POPC     H7Y      HAL2     0.900000E-01   1.00800           0
     14014 MEMB     105      POPC     C38      CTL2    -0.180000       12.0110           0
     14015 MEMB     105      POPC     H8X      HAL2     0.900000E-01   1.00800           0
     14016 MEMB     105      POPC     H8Y      HAL2     0.900000E-01   1.00800           0
     14017 MEMB     105      POPC     C39      CTL2    -0.180000       12.0110           0
     14018 MEMB     105      POPC     H9X      HAL2     0.900000E-01   1.00800           0
     14019 MEMB     105      POPC     H9Y      HAL2     0.900000E-01   1.00800           0
     14020 MEMB     105      POPC     C310     CTL2    -0.180000       12.0110           0
     14021 MEMB     105      POPC     H10X     HAL2     0.900000E-01   1.00800           0
     14022 MEMB     105      POPC     H10Y     HAL2     0.900000E-01   1.00800           0
     14023 MEMB     105      POPC     C311     CTL2    -0.180000       12.0110           0
     14024 MEMB     105      POPC     H11X     HAL2     0.900000E-01   1.00800           0
     14025 MEMB     105      POPC     H11Y     HAL2     0.900000E-01   1.00800           0
     14026 MEMB     105      POPC     C312     CTL2    -0.180000       12.0110           0
     14027 MEMB     105      POPC     H12X     HAL2     0.900000E-01   1.00800           0
     14028 MEMB     105      POPC     H12Y     HAL2     0.900000E-01   1.00800           0
     14029 MEMB     105      POPC     C313     CTL2    -0.180000       12.0110           0
     14030 MEMB     105      POPC     H13X     HAL2     0.900000E-01   1.00800           0
     14031 MEMB     105      POPC     H13Y     HAL2     0.900000E-01   1.00800           0
     14032 MEMB     105      POPC     C314     CTL2    -0.180000       12.0110           0
     14033 MEMB     105      POPC     H14X     HAL2     0.900000E-01   1.00800           0
     14034 MEMB     105      POPC     H14Y     HAL2     0.900000E-01   1.00800           0
     14035 MEMB     105      POPC     C315     CTL2    -0.180000       12.0110           0
     14036 MEMB     105      POPC     H15X     HAL2     0.900000E-01   1.00800           0
     14037 MEMB     105      POPC     H15Y     HAL2     0.900000E-01   1.00800           0
     14038 MEMB     105      POPC     C316     CTL3    -0.270000       12.0110           0
     14039 MEMB     105      POPC     H16X     HAL3     0.900000E-01   1.00800           0
     14040 MEMB     105      POPC     H16Y     HAL3     0.900000E-01   1.00800           0
     14041 MEMB     105      POPC     H16Z     HAL3     0.900000E-01   1.00800           0
     14042 MEMB     106      POPS     N        NH3L    -0.300000       14.0070           0
     14043 MEMB     106      POPS     HN1      HCL      0.330000       1.00800           0
     14044 MEMB     106      POPS     HN2      HCL      0.330000       1.00800           0
     14045 MEMB     106      POPS     HN3      HCL      0.330000       1.00800           0
     14046 MEMB     106      POPS     C12      CTL1     0.210000       12.0110           0
     14047 MEMB     106      POPS     H12A     HBL      0.100000       1.00800           0
     14048 MEMB     106      POPS     C13      CCL      0.340000       12.0110           0
     14049 MEMB     106      POPS     O13A     OCL     -0.670000       15.9994           0
     14050 MEMB     106      POPS     O13B     OCL     -0.670000       15.9994           0
     14051 MEMB     106      POPS     C11      CTL2    -0.800000E-01   12.0110           0
     14052 MEMB     106      POPS     H11A     HAL2     0.900000E-01   1.00800           0
     14053 MEMB     106      POPS     H11B     HAL2     0.900000E-01   1.00800           0
     14054 MEMB     106      POPS     P        PL        1.50000       30.9740           0
     14055 MEMB     106      POPS     O13      O2L     -0.780000       15.9994           0
     14056 MEMB     106      POPS     O14      O2L     -0.780000       15.9994           0
     14057 MEMB     106      POPS     O12      OSLP    -0.570000       15.9994           0
     14058 MEMB     106      POPS     O11      OSLP    -0.570000       15.9994           0
     14059 MEMB     106      POPS     C1       CTL2    -0.800000E-01   12.0110           0
     14060 MEMB     106      POPS     HA       HAL2     0.900000E-01   1.00800           0
     14061 MEMB     106      POPS     HB       HAL2     0.900000E-01   1.00800           0
     14062 MEMB     106      POPS     C2       CTL1     0.170000       12.0110           0
     14063 MEMB     106      POPS     HS       HAL1     0.900000E-01   1.00800           0
     14064 MEMB     106      POPS     O21      OSL     -0.490000       15.9994           0
     14065 MEMB     106      POPS     C21      CL       0.900000       12.0110           0
     14066 MEMB     106      POPS     O22      OBL     -0.630000       15.9994           0
     14067 MEMB     106      POPS     C22      CTL2    -0.220000       12.0110           0
     14068 MEMB     106      POPS     H2R      HAL2     0.900000E-01   1.00800           0
     14069 MEMB     106      POPS     H2S      HAL2     0.900000E-01   1.00800           0
     14070 MEMB     106      POPS     C3       CTL2     0.800000E-01   12.0110           0
     14071 MEMB     106      POPS     HX       HAL2     0.900000E-01   1.00800           0
     14072 MEMB     106      POPS     HY       HAL2     0.900000E-01   1.00800           0
     14073 MEMB     106      POPS     O31      OSL     -0.490000       15.9994           0
     14074 MEMB     106      POPS     C31      CL       0.900000       12.0110           0
     14075 MEMB     106      POPS     O32      OBL     -0.630000       15.9994           0
     14076 MEMB     106      POPS     C32      CTL2    -0.220000       12.0110           0
     14077 MEMB     106      POPS     H2X      HAL2     0.900000E-01   1.00800           0
     14078 MEMB     106      POPS     H2Y      HAL2     0.900000E-01   1.00800           0
     14079 MEMB     106      POPS     C23      CTL2    -0.180000       12.0110           0
     14080 MEMB     106      POPS     H3R      HAL2     0.900000E-01   1.00800           0
     14081 MEMB     106      POPS     H3S      HAL2     0.900000E-01   1.00800           0
     14082 MEMB     106      POPS     C24      CTL2    -0.180000       12.0110           0
     14083 MEMB     106      POPS     H4R      HAL2     0.900000E-01   1.00800           0
     14084 MEMB     106      POPS     H4S      HAL2     0.900000E-01   1.00800           0
     14085 MEMB     106      POPS     C25      CTL2    -0.180000       12.0110           0
     14086 MEMB     106      POPS     H5R      HAL2     0.900000E-01   1.00800           0
     14087 MEMB     106      POPS     H5S      HAL2     0.900000E-01   1.00800           0
     14088 MEMB     106      POPS     C26      CTL2    -0.180000       12.0110           0
     14089 MEMB     106      POPS     H6R      HAL2     0.900000E-01   1.00800           0
     14090 MEMB     106      POPS     H6S      HAL2     0.900000E-01   1.00800           0
     14091 MEMB     106      POPS     C27      CTL2    -0.180000       12.0110           0
     14092 MEMB     106      POPS     H7R      HAL2     0.900000E-01   1.00800           0
     14093 MEMB     106      POPS     H7S      HAL2     0.900000E-01   1.00800           0
     14094 MEMB     106      POPS     C28      CTL2    -0.180000       12.0110           0
     14095 MEMB     106      POPS     H8R      HAL2     0.900000E-01   1.00800           0
     14096 MEMB     106      POPS     H8S      HAL2     0.900000E-01   1.00800           0
     14097 MEMB     106      POPS     C29      CEL1    -0.150000       12.0110           0
     14098 MEMB     106      POPS     H91      HEL1     0.150000       1.00800           0
     14099 MEMB     106      POPS     C210     CEL1    -0.150000       12.0110           0
     14100 MEMB     106      POPS     H101     HEL1     0.150000       1.00800           0
     14101 MEMB     106      POPS     C211     CTL2    -0.180000       12.0110           0
     14102 MEMB     106      POPS     H11R     HAL2     0.900000E-01   1.00800           0
     14103 MEMB     106      POPS     H11S     HAL2     0.900000E-01   1.00800           0
     14104 MEMB     106      POPS     C212     CTL2    -0.180000       12.0110           0
     14105 MEMB     106      POPS     H12R     HAL2     0.900000E-01   1.00800           0
     14106 MEMB     106      POPS     H12S     HAL2     0.900000E-01   1.00800           0
     14107 MEMB     106      POPS     C213     CTL2    -0.180000       12.0110           0
     14108 MEMB     106      POPS     H13R     HAL2     0.900000E-01   1.00800           0
     14109 MEMB     106      POPS     H13S     HAL2     0.900000E-01   1.00800           0
     14110 MEMB     106      POPS     C214     CTL2    -0.180000       12.0110           0
     14111 MEMB     106      POPS     H14R     HAL2     0.900000E-01   1.00800           0
     14112 MEMB     106      POPS     H14S     HAL2     0.900000E-01   1.00800           0
     14113 MEMB     106      POPS     C215     CTL2    -0.180000       12.0110           0
     14114 MEMB     106      POPS     H15R     HAL2     0.900000E-01   1.00800           0
     14115 MEMB     106      POPS     H15S     HAL2     0.900000E-01   1.00800           0
     14116 MEMB     106      POPS     C216     CTL2    -0.180000       12.0110           0
     14117 MEMB     106      POPS     H16R     HAL2     0.900000E-01   1.00800           0
     14118 MEMB     106      POPS     H16S     HAL2     0.900000E-01   1.00800           0
     14119 MEMB     106      POPS     C217     CTL2    -0.180000       12.0110           0
     14120 MEMB     106      POPS     H17R     HAL2     0.900000E-01   1.00800           0
     14121 MEMB     106      POPS     H17S     HAL2     0.900000E-01   1.00800           0
     14122 MEMB     106      POPS     C218     CTL3    -0.270000       12.0110           0
     14123 MEMB     106      POPS     H18R     HAL3     0.900000E-01   1.00800           0
     14124 MEMB     106      POPS     H18S     HAL3     0.900000E-01   1.00800           0
     14125 MEMB     106      POPS     H18T     HAL3     0.900000E-01   1.00800           0
     14126 MEMB     106      POPS     C33      CTL2    -0.180000       12.0110           0
     14127 MEMB     106      POPS     H3X      HAL2     0.900000E-01   1.00800           0
     14128 MEMB     106      POPS     H3Y      HAL2     0.900000E-01   1.00800           0
     14129 MEMB     106      POPS     C34      CTL2    -0.180000       12.0110           0
     14130 MEMB     106      POPS     H4X      HAL2     0.900000E-01   1.00800           0
     14131 MEMB     106      POPS     H4Y      HAL2     0.900000E-01   1.00800           0
     14132 MEMB     106      POPS     C35      CTL2    -0.180000       12.0110           0
     14133 MEMB     106      POPS     H5X      HAL2     0.900000E-01   1.00800           0
     14134 MEMB     106      POPS     H5Y      HAL2     0.900000E-01   1.00800           0
     14135 MEMB     106      POPS     C36      CTL2    -0.180000       12.0110           0
     14136 MEMB     106      POPS     H6X      HAL2     0.900000E-01   1.00800           0
     14137 MEMB     106      POPS     H6Y      HAL2     0.900000E-01   1.00800           0
     14138 MEMB     106      POPS     C37      CTL2    -0.180000       12.0110           0
     14139 MEMB     106      POPS     H7X      HAL2     0.900000E-01   1.00800           0
     14140 MEMB     106      POPS     H7Y      HAL2     0.900000E-01   1.00800           0
     14141 MEMB     106      POPS     C38      CTL2    -0.180000       12.0110           0
     14142 MEMB     106      POPS     H8X      HAL2     0.900000E-01   1.00800           0
     14143 MEMB     106      POPS     H8Y      HAL2     0.900000E-01   1.00800           0
     14144 MEMB     106      POPS     C39      CTL2    -0.180000       12.0110           0
     14145 MEMB     106      POPS     H9X      HAL2     0.900000E-01   1.00800           0
     14146 MEMB     106      POPS     H9Y      HAL2     0.900000E-01   1.00800           0
     14147 MEMB     106      POPS     C310     CTL2    -0.180000       12.0110           0
     14148 MEMB     106      POPS     H10X     HAL2     0.900000E-01   1.00800           0
     14149 MEMB     106      POPS     H10Y     HAL2     0.900000E-01   1.00800           0
     14150 MEMB     106      POPS     C311     CTL2    -0.180000       12.0110           0
     14151 MEMB     106      POPS     H11X     HAL2     0.900000E-01   1.00800           0
     14152 MEMB     106      POPS     H11Y     HAL2     0.900000E-01   1.00800           0
     14153 MEMB     106      POPS     C312     CTL2    -0.180000       12.0110           0
     14154 MEMB     106      POPS     H12X     HAL2     0.900000E-01   1.00800           0
     14155 MEMB     106      POPS     H12Y     HAL2     0.900000E-01   1.00800           0
     14156 MEMB     106      POPS     C313     CTL2    -0.180000       12.0110           0
     14157 MEMB     106      POPS     H13X     HAL2     0.900000E-01   1.00800           0
     14158 MEMB     106      POPS     H13Y     HAL2     0.900000E-01   1.00800           0
     14159 MEMB     106      POPS     C314     CTL2    -0.180000       12.0110           0
     14160 MEMB     106      POPS     H14X     HAL2     0.900000E-01   1.00800           0
     14161 MEMB     106      POPS     H14Y     HAL2     0.900000E-01   1.00800           0
     14162 MEMB     106      POPS     C315     CTL2    -0.180000       12.0110           0
     14163 MEMB     106      POPS     H15X     HAL2     0.900000E-01   1.00800           0
     14164 MEMB     106      POPS     H15Y     HAL2     0.900000E-01   1.00800           0
     14165 MEMB     106      POPS     C316     CTL3    -0.270000       12.0110           0
     14166 MEMB     106      POPS     H16X     HAL3     0.900000E-01   1.00800           0
     14167 MEMB     106      POPS     H16Y     HAL3     0.900000E-01   1.00800           0
     14168 MEMB     106      POPS     H16Z     HAL3     0.900000E-01   1.00800           0
     14169 MEMB     107      POPC     N        NTL     -0.600000       14.0070           0
     14170 MEMB     107      POPC     C12      CTL2    -0.100000       12.0110           0
     14171 MEMB     107      POPC     H12A     HL       0.250000       1.00800           0
     14172 MEMB     107      POPC     H12B     HL       0.250000       1.00800           0
     14173 MEMB     107      POPC     C13      CTL5    -0.350000       12.0110           0
     14174 MEMB     107      POPC     H13A     HL       0.250000       1.00800           0
     14175 MEMB     107      POPC     H13B     HL       0.250000       1.00800           0
     14176 MEMB     107      POPC     H13C     HL       0.250000       1.00800           0
     14177 MEMB     107      POPC     C14      CTL5    -0.350000       12.0110           0
     14178 MEMB     107      POPC     H14A     HL       0.250000       1.00800           0
     14179 MEMB     107      POPC     H14B     HL       0.250000       1.00800           0
     14180 MEMB     107      POPC     H14C     HL       0.250000       1.00800           0
     14181 MEMB     107      POPC     C15      CTL5    -0.350000       12.0110           0
     14182 MEMB     107      POPC     H15A     HL       0.250000       1.00800           0
     14183 MEMB     107      POPC     H15B     HL       0.250000       1.00800           0
     14184 MEMB     107      POPC     H15C     HL       0.250000       1.00800           0
     14185 MEMB     107      POPC     C11      CTL2    -0.800000E-01   12.0110           0
     14186 MEMB     107      POPC     H11A     HAL2     0.900000E-01   1.00800           0
     14187 MEMB     107      POPC     H11B     HAL2     0.900000E-01   1.00800           0
     14188 MEMB     107      POPC     P        PL        1.50000       30.9740           0
     14189 MEMB     107      POPC     O13      O2L     -0.780000       15.9994           0
     14190 MEMB     107      POPC     O14      O2L     -0.780000       15.9994           0
     14191 MEMB     107      POPC     O12      OSLP    -0.570000       15.9994           0
     14192 MEMB     107      POPC     O11      OSLP    -0.570000       15.9994           0
     14193 MEMB     107      POPC     C1       CTL2    -0.800000E-01   12.0110           0
     14194 MEMB     107      POPC     HA       HAL2     0.900000E-01   1.00800           0
     14195 MEMB     107      POPC     HB       HAL2     0.900000E-01   1.00800           0
     14196 MEMB     107      POPC     C2       CTL1     0.170000       12.0110           0
     14197 MEMB     107      POPC     HS       HAL1     0.900000E-01   1.00800           0
     14198 MEMB     107      POPC     O21      OSL     -0.490000       15.9994           0
     14199 MEMB     107      POPC     C21      CL       0.900000       12.0110           0
     14200 MEMB     107      POPC     O22      OBL     -0.630000       15.9994           0
     14201 MEMB     107      POPC     C22      CTL2    -0.220000       12.0110           0
     14202 MEMB     107      POPC     H2R      HAL2     0.900000E-01   1.00800           0
     14203 MEMB     107      POPC     H2S      HAL2     0.900000E-01   1.00800           0
     14204 MEMB     107      POPC     C3       CTL2     0.800000E-01   12.0110           0
     14205 MEMB     107      POPC     HX       HAL2     0.900000E-01   1.00800           0
     14206 MEMB     107      POPC     HY       HAL2     0.900000E-01   1.00800           0
     14207 MEMB     107      POPC     O31      OSL     -0.490000       15.9994           0
     14208 MEMB     107      POPC     C31      CL       0.900000       12.0110           0
     14209 MEMB     107      POPC     O32      OBL     -0.630000       15.9994           0
     14210 MEMB     107      POPC     C32      CTL2    -0.220000       12.0110           0
     14211 MEMB     107      POPC     H2X      HAL2     0.900000E-01   1.00800           0
     14212 MEMB     107      POPC     H2Y      HAL2     0.900000E-01   1.00800           0
     14213 MEMB     107      POPC     C23      CTL2    -0.180000       12.0110           0
     14214 MEMB     107      POPC     H3R      HAL2     0.900000E-01   1.00800           0
     14215 MEMB     107      POPC     H3S      HAL2     0.900000E-01   1.00800           0
     14216 MEMB     107      POPC     C24      CTL2    -0.180000       12.0110           0
     14217 MEMB     107      POPC     H4R      HAL2     0.900000E-01   1.00800           0
     14218 MEMB     107      POPC     H4S      HAL2     0.900000E-01   1.00800           0
     14219 MEMB     107      POPC     C25      CTL2    -0.180000       12.0110           0
     14220 MEMB     107      POPC     H5R      HAL2     0.900000E-01   1.00800           0
     14221 MEMB     107      POPC     H5S      HAL2     0.900000E-01   1.00800           0
     14222 MEMB     107      POPC     C26      CTL2    -0.180000       12.0110           0
     14223 MEMB     107      POPC     H6R      HAL2     0.900000E-01   1.00800           0
     14224 MEMB     107      POPC     H6S      HAL2     0.900000E-01   1.00800           0
     14225 MEMB     107      POPC     C27      CTL2    -0.180000       12.0110           0
     14226 MEMB     107      POPC     H7R      HAL2     0.900000E-01   1.00800           0
     14227 MEMB     107      POPC     H7S      HAL2     0.900000E-01   1.00800           0
     14228 MEMB     107      POPC     C28      CTL2    -0.180000       12.0110           0
     14229 MEMB     107      POPC     H8R      HAL2     0.900000E-01   1.00800           0
     14230 MEMB     107      POPC     H8S      HAL2     0.900000E-01   1.00800           0
     14231 MEMB     107      POPC     C29      CEL1    -0.150000       12.0110           0
     14232 MEMB     107      POPC     H91      HEL1     0.150000       1.00800           0
     14233 MEMB     107      POPC     C210     CEL1    -0.150000       12.0110           0
     14234 MEMB     107      POPC     H101     HEL1     0.150000       1.00800           0
     14235 MEMB     107      POPC     C211     CTL2    -0.180000       12.0110           0
     14236 MEMB     107      POPC     H11R     HAL2     0.900000E-01   1.00800           0
     14237 MEMB     107      POPC     H11S     HAL2     0.900000E-01   1.00800           0
     14238 MEMB     107      POPC     C212     CTL2    -0.180000       12.0110           0
     14239 MEMB     107      POPC     H12R     HAL2     0.900000E-01   1.00800           0
     14240 MEMB     107      POPC     H12S     HAL2     0.900000E-01   1.00800           0
     14241 MEMB     107      POPC     C213     CTL2    -0.180000       12.0110           0
     14242 MEMB     107      POPC     H13R     HAL2     0.900000E-01   1.00800           0
     14243 MEMB     107      POPC     H13S     HAL2     0.900000E-01   1.00800           0
     14244 MEMB     107      POPC     C214     CTL2    -0.180000       12.0110           0
     14245 MEMB     107      POPC     H14R     HAL2     0.900000E-01   1.00800           0
     14246 MEMB     107      POPC     H14S     HAL2     0.900000E-01   1.00800           0
     14247 MEMB     107      POPC     C215     CTL2    -0.180000       12.0110           0
     14248 MEMB     107      POPC     H15R     HAL2     0.900000E-01   1.00800           0
     14249 MEMB     107      POPC     H15S     HAL2     0.900000E-01   1.00800           0
     14250 MEMB     107      POPC     C216     CTL2    -0.180000       12.0110           0
     14251 MEMB     107      POPC     H16R     HAL2     0.900000E-01   1.00800           0
     14252 MEMB     107      POPC     H16S     HAL2     0.900000E-01   1.00800           0
     14253 MEMB     107      POPC     C217     CTL2    -0.180000       12.0110           0
     14254 MEMB     107      POPC     H17R     HAL2     0.900000E-01   1.00800           0
     14255 MEMB     107      POPC     H17S     HAL2     0.900000E-01   1.00800           0
     14256 MEMB     107      POPC     C218     CTL3    -0.270000       12.0110           0
     14257 MEMB     107      POPC     H18R     HAL3     0.900000E-01   1.00800           0
     14258 MEMB     107      POPC     H18S     HAL3     0.900000E-01   1.00800           0
     14259 MEMB     107      POPC     H18T     HAL3     0.900000E-01   1.00800           0
     14260 MEMB     107      POPC     C33      CTL2    -0.180000       12.0110           0
     14261 MEMB     107      POPC     H3X      HAL2     0.900000E-01   1.00800           0
     14262 MEMB     107      POPC     H3Y      HAL2     0.900000E-01   1.00800           0
     14263 MEMB     107      POPC     C34      CTL2    -0.180000       12.0110           0
     14264 MEMB     107      POPC     H4X      HAL2     0.900000E-01   1.00800           0
     14265 MEMB     107      POPC     H4Y      HAL2     0.900000E-01   1.00800           0
     14266 MEMB     107      POPC     C35      CTL2    -0.180000       12.0110           0
     14267 MEMB     107      POPC     H5X      HAL2     0.900000E-01   1.00800           0
     14268 MEMB     107      POPC     H5Y      HAL2     0.900000E-01   1.00800           0
     14269 MEMB     107      POPC     C36      CTL2    -0.180000       12.0110           0
     14270 MEMB     107      POPC     H6X      HAL2     0.900000E-01   1.00800           0
     14271 MEMB     107      POPC     H6Y      HAL2     0.900000E-01   1.00800           0
     14272 MEMB     107      POPC     C37      CTL2    -0.180000       12.0110           0
     14273 MEMB     107      POPC     H7X      HAL2     0.900000E-01   1.00800           0
     14274 MEMB     107      POPC     H7Y      HAL2     0.900000E-01   1.00800           0
     14275 MEMB     107      POPC     C38      CTL2    -0.180000       12.0110           0
     14276 MEMB     107      POPC     H8X      HAL2     0.900000E-01   1.00800           0
     14277 MEMB     107      POPC     H8Y      HAL2     0.900000E-01   1.00800           0
     14278 MEMB     107      POPC     C39      CTL2    -0.180000       12.0110           0
     14279 MEMB     107      POPC     H9X      HAL2     0.900000E-01   1.00800           0
     14280 MEMB     107      POPC     H9Y      HAL2     0.900000E-01   1.00800           0
     14281 MEMB     107      POPC     C310     CTL2    -0.180000       12.0110           0
     14282 MEMB     107      POPC     H10X     HAL2     0.900000E-01   1.00800           0
     14283 MEMB     107      POPC     H10Y     HAL2     0.900000E-01   1.00800           0
     14284 MEMB     107      POPC     C311     CTL2    -0.180000       12.0110           0
     14285 MEMB     107      POPC     H11X     HAL2     0.900000E-01   1.00800           0
     14286 MEMB     107      POPC     H11Y     HAL2     0.900000E-01   1.00800           0
     14287 MEMB     107      POPC     C312     CTL2    -0.180000       12.0110           0
     14288 MEMB     107      POPC     H12X     HAL2     0.900000E-01   1.00800           0
     14289 MEMB     107      POPC     H12Y     HAL2     0.900000E-01   1.00800           0
     14290 MEMB     107      POPC     C313     CTL2    -0.180000       12.0110           0
     14291 MEMB     107      POPC     H13X     HAL2     0.900000E-01   1.00800           0
     14292 MEMB     107      POPC     H13Y     HAL2     0.900000E-01   1.00800           0
     14293 MEMB     107      POPC     C314     CTL2    -0.180000       12.0110           0
     14294 MEMB     107      POPC     H14X     HAL2     0.900000E-01   1.00800           0
     14295 MEMB     107      POPC     H14Y     HAL2     0.900000E-01   1.00800           0
     14296 MEMB     107      POPC     C315     CTL2    -0.180000       12.0110           0
     14297 MEMB     107      POPC     H15X     HAL2     0.900000E-01   1.00800           0
     14298 MEMB     107      POPC     H15Y     HAL2     0.900000E-01   1.00800           0
     14299 MEMB     107      POPC     C316     CTL3    -0.270000       12.0110           0
     14300 MEMB     107      POPC     H16X     HAL3     0.900000E-01   1.00800           0
     14301 MEMB     107      POPC     H16Y     HAL3     0.900000E-01   1.00800           0
     14302 MEMB     107      POPC     H16Z     HAL3     0.900000E-01   1.00800           0
     14303 MEMB     108      POPC     N        NTL     -0.600000       14.0070           0
     14304 MEMB     108      POPC     C12      CTL2    -0.100000       12.0110           0
     14305 MEMB     108      POPC     H12A     HL       0.250000       1.00800           0
     14306 MEMB     108      POPC     H12B     HL       0.250000       1.00800           0
     14307 MEMB     108      POPC     C13      CTL5    -0.350000       12.0110           0
     14308 MEMB     108      POPC     H13A     HL       0.250000       1.00800           0
     14309 MEMB     108      POPC     H13B     HL       0.250000       1.00800           0
     14310 MEMB     108      POPC     H13C     HL       0.250000       1.00800           0
     14311 MEMB     108      POPC     C14      CTL5    -0.350000       12.0110           0
     14312 MEMB     108      POPC     H14A     HL       0.250000       1.00800           0
     14313 MEMB     108      POPC     H14B     HL       0.250000       1.00800           0
     14314 MEMB     108      POPC     H14C     HL       0.250000       1.00800           0
     14315 MEMB     108      POPC     C15      CTL5    -0.350000       12.0110           0
     14316 MEMB     108      POPC     H15A     HL       0.250000       1.00800           0
     14317 MEMB     108      POPC     H15B     HL       0.250000       1.00800           0
     14318 MEMB     108      POPC     H15C     HL       0.250000       1.00800           0
     14319 MEMB     108      POPC     C11      CTL2    -0.800000E-01   12.0110           0
     14320 MEMB     108      POPC     H11A     HAL2     0.900000E-01   1.00800           0
     14321 MEMB     108      POPC     H11B     HAL2     0.900000E-01   1.00800           0
     14322 MEMB     108      POPC     P        PL        1.50000       30.9740           0
     14323 MEMB     108      POPC     O13      O2L     -0.780000       15.9994           0
     14324 MEMB     108      POPC     O14      O2L     -0.780000       15.9994           0
     14325 MEMB     108      POPC     O12      OSLP    -0.570000       15.9994           0
     14326 MEMB     108      POPC     O11      OSLP    -0.570000       15.9994           0
     14327 MEMB     108      POPC     C1       CTL2    -0.800000E-01   12.0110           0
     14328 MEMB     108      POPC     HA       HAL2     0.900000E-01   1.00800           0
     14329 MEMB     108      POPC     HB       HAL2     0.900000E-01   1.00800           0
     14330 MEMB     108      POPC     C2       CTL1     0.170000       12.0110           0
     14331 MEMB     108      POPC     HS       HAL1     0.900000E-01   1.00800           0
     14332 MEMB     108      POPC     O21      OSL     -0.490000       15.9994           0
     14333 MEMB     108      POPC     C21      CL       0.900000       12.0110           0
     14334 MEMB     108      POPC     O22      OBL     -0.630000       15.9994           0
     14335 MEMB     108      POPC     C22      CTL2    -0.220000       12.0110           0
     14336 MEMB     108      POPC     H2R      HAL2     0.900000E-01   1.00800           0
     14337 MEMB     108      POPC     H2S      HAL2     0.900000E-01   1.00800           0
     14338 MEMB     108      POPC     C3       CTL2     0.800000E-01   12.0110           0
     14339 MEMB     108      POPC     HX       HAL2     0.900000E-01   1.00800           0
     14340 MEMB     108      POPC     HY       HAL2     0.900000E-01   1.00800           0
     14341 MEMB     108      POPC     O31      OSL     -0.490000       15.9994           0
     14342 MEMB     108      POPC     C31      CL       0.900000       12.0110           0
     14343 MEMB     108      POPC     O32      OBL     -0.630000       15.9994           0
     14344 MEMB     108      POPC     C32      CTL2    -0.220000       12.0110           0
     14345 MEMB     108      POPC     H2X      HAL2     0.900000E-01   1.00800           0
     14346 MEMB     108      POPC     H2Y      HAL2     0.900000E-01   1.00800           0
     14347 MEMB     108      POPC     C23      CTL2    -0.180000       12.0110           0
     14348 MEMB     108      POPC     H3R      HAL2     0.900000E-01   1.00800           0
     14349 MEMB     108      POPC     H3S      HAL2     0.900000E-01   1.00800           0
     14350 MEMB     108      POPC     C24      CTL2    -0.180000       12.0110           0
     14351 MEMB     108      POPC     H4R      HAL2     0.900000E-01   1.00800           0
     14352 MEMB     108      POPC     H4S      HAL2     0.900000E-01   1.00800           0
     14353 MEMB     108      POPC     C25      CTL2    -0.180000       12.0110           0
     14354 MEMB     108      POPC     H5R      HAL2     0.900000E-01   1.00800           0
     14355 MEMB     108      POPC     H5S      HAL2     0.900000E-01   1.00800           0
     14356 MEMB     108      POPC     C26      CTL2    -0.180000       12.0110           0
     14357 MEMB     108      POPC     H6R      HAL2     0.900000E-01   1.00800           0
     14358 MEMB     108      POPC     H6S      HAL2     0.900000E-01   1.00800           0
     14359 MEMB     108      POPC     C27      CTL2    -0.180000       12.0110           0
     14360 MEMB     108      POPC     H7R      HAL2     0.900000E-01   1.00800           0
     14361 MEMB     108      POPC     H7S      HAL2     0.900000E-01   1.00800           0
     14362 MEMB     108      POPC     C28      CTL2    -0.180000       12.0110           0
     14363 MEMB     108      POPC     H8R      HAL2     0.900000E-01   1.00800           0
     14364 MEMB     108      POPC     H8S      HAL2     0.900000E-01   1.00800           0
     14365 MEMB     108      POPC     C29      CEL1    -0.150000       12.0110           0
     14366 MEMB     108      POPC     H91      HEL1     0.150000       1.00800           0
     14367 MEMB     108      POPC     C210     CEL1    -0.150000       12.0110           0
     14368 MEMB     108      POPC     H101     HEL1     0.150000       1.00800           0
     14369 MEMB     108      POPC     C211     CTL2    -0.180000       12.0110           0
     14370 MEMB     108      POPC     H11R     HAL2     0.900000E-01   1.00800           0
     14371 MEMB     108      POPC     H11S     HAL2     0.900000E-01   1.00800           0
     14372 MEMB     108      POPC     C212     CTL2    -0.180000       12.0110           0
     14373 MEMB     108      POPC     H12R     HAL2     0.900000E-01   1.00800           0
     14374 MEMB     108      POPC     H12S     HAL2     0.900000E-01   1.00800           0
     14375 MEMB     108      POPC     C213     CTL2    -0.180000       12.0110           0
     14376 MEMB     108      POPC     H13R     HAL2     0.900000E-01   1.00800           0
     14377 MEMB     108      POPC     H13S     HAL2     0.900000E-01   1.00800           0
     14378 MEMB     108      POPC     C214     CTL2    -0.180000       12.0110           0
     14379 MEMB     108      POPC     H14R     HAL2     0.900000E-01   1.00800           0
     14380 MEMB     108      POPC     H14S     HAL2     0.900000E-01   1.00800           0
     14381 MEMB     108      POPC     C215     CTL2    -0.180000       12.0110           0
     14382 MEMB     108      POPC     H15R     HAL2     0.900000E-01   1.00800           0
     14383 MEMB     108      POPC     H15S     HAL2     0.900000E-01   1.00800           0
     14384 MEMB     108      POPC     C216     CTL2    -0.180000       12.0110           0
     14385 MEMB     108      POPC     H16R     HAL2     0.900000E-01   1.00800           0
     14386 MEMB     108      POPC     H16S     HAL2     0.900000E-01   1.00800           0
     14387 MEMB     108      POPC     C217     CTL2    -0.180000       12.0110           0
     14388 MEMB     108      POPC     H17R     HAL2     0.900000E-01   1.00800           0
     14389 MEMB     108      POPC     H17S     HAL2     0.900000E-01   1.00800           0
     14390 MEMB     108      POPC     C218     CTL3    -0.270000       12.0110           0
     14391 MEMB     108      POPC     H18R     HAL3     0.900000E-01   1.00800           0
     14392 MEMB     108      POPC     H18S     HAL3     0.900000E-01   1.00800           0
     14393 MEMB     108      POPC     H18T     HAL3     0.900000E-01   1.00800           0
     14394 MEMB     108      POPC     C33      CTL2    -0.180000       12.0110           0
     14395 MEMB     108      POPC     H3X      HAL2     0.900000E-01   1.00800           0
     14396 MEMB     108      POPC     H3Y      HAL2     0.900000E-01   1.00800           0
     14397 MEMB     108      POPC     C34      CTL2    -0.180000       12.0110           0
     14398 MEMB     108      POPC     H4X      HAL2     0.900000E-01   1.00800           0
     14399 MEMB     108      POPC     H4Y      HAL2     0.900000E-01   1.00800           0
     14400 MEMB     108      POPC     C35      CTL2    -0.180000       12.0110           0
     14401 MEMB     108      POPC     H5X      HAL2     0.900000E-01   1.00800           0
     14402 MEMB     108      POPC     H5Y      HAL2     0.900000E-01   1.00800           0
     14403 MEMB     108      POPC     C36      CTL2    -0.180000       12.0110           0
     14404 MEMB     108      POPC     H6X      HAL2     0.900000E-01   1.00800           0
     14405 MEMB     108      POPC     H6Y      HAL2     0.900000E-01   1.00800           0
     14406 MEMB     108      POPC     C37      CTL2    -0.180000       12.0110           0
     14407 MEMB     108      POPC     H7X      HAL2     0.900000E-01   1.00800           0
     14408 MEMB     108      POPC     H7Y      HAL2     0.900000E-01   1.00800           0
     14409 MEMB     108      POPC     C38      CTL2    -0.180000       12.0110           0
     14410 MEMB     108      POPC     H8X      HAL2     0.900000E-01   1.00800           0
     14411 MEMB     108      POPC     H8Y      HAL2     0.900000E-01   1.00800           0
     14412 MEMB     108      POPC     C39      CTL2    -0.180000       12.0110           0
     14413 MEMB     108      POPC     H9X      HAL2     0.900000E-01   1.00800           0
     14414 MEMB     108      POPC     H9Y      HAL2     0.900000E-01   1.00800           0
     14415 MEMB     108      POPC     C310     CTL2    -0.180000       12.0110           0
     14416 MEMB     108      POPC     H10X     HAL2     0.900000E-01   1.00800           0
     14417 MEMB     108      POPC     H10Y     HAL2     0.900000E-01   1.00800           0
     14418 MEMB     108      POPC     C311     CTL2    -0.180000       12.0110           0
     14419 MEMB     108      POPC     H11X     HAL2     0.900000E-01   1.00800           0
     14420 MEMB     108      POPC     H11Y     HAL2     0.900000E-01   1.00800           0
     14421 MEMB     108      POPC     C312     CTL2    -0.180000       12.0110           0
     14422 MEMB     108      POPC     H12X     HAL2     0.900000E-01   1.00800           0
     14423 MEMB     108      POPC     H12Y     HAL2     0.900000E-01   1.00800           0
     14424 MEMB     108      POPC     C313     CTL2    -0.180000       12.0110           0
     14425 MEMB     108      POPC     H13X     HAL2     0.900000E-01   1.00800           0
     14426 MEMB     108      POPC     H13Y     HAL2     0.900000E-01   1.00800           0
     14427 MEMB     108      POPC     C314     CTL2    -0.180000       12.0110           0
     14428 MEMB     108      POPC     H14X     HAL2     0.900000E-01   1.00800           0
     14429 MEMB     108      POPC     H14Y     HAL2     0.900000E-01   1.00800           0
     14430 MEMB     108      POPC     C315     CTL2    -0.180000       12.0110           0
     14431 MEMB     108      POPC     H15X     HAL2     0.900000E-01   1.00800           0
     14432 MEMB     108      POPC     H15Y     HAL2     0.900000E-01   1.00800           0
     14433 MEMB     108      POPC     C316     CTL3    -0.270000       12.0110           0
     14434 MEMB     108      POPC     H16X     HAL3     0.900000E-01   1.00800           0
     14435 MEMB     108      POPC     H16Y     HAL3     0.900000E-01   1.00800           0
     14436 MEMB     108      POPC     H16Z     HAL3     0.900000E-01   1.00800           0
     14437 MEMB     109      POPC     N        NTL     -0.600000       14.0070           0
     14438 MEMB     109      POPC     C12      CTL2    -0.100000       12.0110           0
     14439 MEMB     109      POPC     H12A     HL       0.250000       1.00800           0
     14440 MEMB     109      POPC     H12B     HL       0.250000       1.00800           0
     14441 MEMB     109      POPC     C13      CTL5    -0.350000       12.0110           0
     14442 MEMB     109      POPC     H13A     HL       0.250000       1.00800           0
     14443 MEMB     109      POPC     H13B     HL       0.250000       1.00800           0
     14444 MEMB     109      POPC     H13C     HL       0.250000       1.00800           0
     14445 MEMB     109      POPC     C14      CTL5    -0.350000       12.0110           0
     14446 MEMB     109      POPC     H14A     HL       0.250000       1.00800           0
     14447 MEMB     109      POPC     H14B     HL       0.250000       1.00800           0
     14448 MEMB     109      POPC     H14C     HL       0.250000       1.00800           0
     14449 MEMB     109      POPC     C15      CTL5    -0.350000       12.0110           0
     14450 MEMB     109      POPC     H15A     HL       0.250000       1.00800           0
     14451 MEMB     109      POPC     H15B     HL       0.250000       1.00800           0
     14452 MEMB     109      POPC     H15C     HL       0.250000       1.00800           0
     14453 MEMB     109      POPC     C11      CTL2    -0.800000E-01   12.0110           0
     14454 MEMB     109      POPC     H11A     HAL2     0.900000E-01   1.00800           0
     14455 MEMB     109      POPC     H11B     HAL2     0.900000E-01   1.00800           0
     14456 MEMB     109      POPC     P        PL        1.50000       30.9740           0
     14457 MEMB     109      POPC     O13      O2L     -0.780000       15.9994           0
     14458 MEMB     109      POPC     O14      O2L     -0.780000       15.9994           0
     14459 MEMB     109      POPC     O12      OSLP    -0.570000       15.9994           0
     14460 MEMB     109      POPC     O11      OSLP    -0.570000       15.9994           0
     14461 MEMB     109      POPC     C1       CTL2    -0.800000E-01   12.0110           0
     14462 MEMB     109      POPC     HA       HAL2     0.900000E-01   1.00800           0
     14463 MEMB     109      POPC     HB       HAL2     0.900000E-01   1.00800           0
     14464 MEMB     109      POPC     C2       CTL1     0.170000       12.0110           0
     14465 MEMB     109      POPC     HS       HAL1     0.900000E-01   1.00800           0
     14466 MEMB     109      POPC     O21      OSL     -0.490000       15.9994           0
     14467 MEMB     109      POPC     C21      CL       0.900000       12.0110           0
     14468 MEMB     109      POPC     O22      OBL     -0.630000       15.9994           0
     14469 MEMB     109      POPC     C22      CTL2    -0.220000       12.0110           0
     14470 MEMB     109      POPC     H2R      HAL2     0.900000E-01   1.00800           0
     14471 MEMB     109      POPC     H2S      HAL2     0.900000E-01   1.00800           0
     14472 MEMB     109      POPC     C3       CTL2     0.800000E-01   12.0110           0
     14473 MEMB     109      POPC     HX       HAL2     0.900000E-01   1.00800           0
     14474 MEMB     109      POPC     HY       HAL2     0.900000E-01   1.00800           0
     14475 MEMB     109      POPC     O31      OSL     -0.490000       15.9994           0
     14476 MEMB     109      POPC     C31      CL       0.900000       12.0110           0
     14477 MEMB     109      POPC     O32      OBL     -0.630000       15.9994           0
     14478 MEMB     109      POPC     C32      CTL2    -0.220000       12.0110           0
     14479 MEMB     109      POPC     H2X      HAL2     0.900000E-01   1.00800           0
     14480 MEMB     109      POPC     H2Y      HAL2     0.900000E-01   1.00800           0
     14481 MEMB     109      POPC     C23      CTL2    -0.180000       12.0110           0
     14482 MEMB     109      POPC     H3R      HAL2     0.900000E-01   1.00800           0
     14483 MEMB     109      POPC     H3S      HAL2     0.900000E-01   1.00800           0
     14484 MEMB     109      POPC     C24      CTL2    -0.180000       12.0110           0
     14485 MEMB     109      POPC     H4R      HAL2     0.900000E-01   1.00800           0
     14486 MEMB     109      POPC     H4S      HAL2     0.900000E-01   1.00800           0
     14487 MEMB     109      POPC     C25      CTL2    -0.180000       12.0110           0
     14488 MEMB     109      POPC     H5R      HAL2     0.900000E-01   1.00800           0
     14489 MEMB     109      POPC     H5S      HAL2     0.900000E-01   1.00800           0
     14490 MEMB     109      POPC     C26      CTL2    -0.180000       12.0110           0
     14491 MEMB     109      POPC     H6R      HAL2     0.900000E-01   1.00800           0
     14492 MEMB     109      POPC     H6S      HAL2     0.900000E-01   1.00800           0
     14493 MEMB     109      POPC     C27      CTL2    -0.180000       12.0110           0
     14494 MEMB     109      POPC     H7R      HAL2     0.900000E-01   1.00800           0
     14495 MEMB     109      POPC     H7S      HAL2     0.900000E-01   1.00800           0
     14496 MEMB     109      POPC     C28      CTL2    -0.180000       12.0110           0
     14497 MEMB     109      POPC     H8R      HAL2     0.900000E-01   1.00800           0
     14498 MEMB     109      POPC     H8S      HAL2     0.900000E-01   1.00800           0
     14499 MEMB     109      POPC     C29      CEL1    -0.150000       12.0110           0
     14500 MEMB     109      POPC     H91      HEL1     0.150000       1.00800           0
     14501 MEMB     109      POPC     C210     CEL1    -0.150000       12.0110           0
     14502 MEMB     109      POPC     H101     HEL1     0.150000       1.00800           0
     14503 MEMB     109      POPC     C211     CTL2    -0.180000       12.0110           0
     14504 MEMB     109      POPC     H11R     HAL2     0.900000E-01   1.00800           0
     14505 MEMB     109      POPC     H11S     HAL2     0.900000E-01   1.00800           0
     14506 MEMB     109      POPC     C212     CTL2    -0.180000       12.0110           0
     14507 MEMB     109      POPC     H12R     HAL2     0.900000E-01   1.00800           0
     14508 MEMB     109      POPC     H12S     HAL2     0.900000E-01   1.00800           0
     14509 MEMB     109      POPC     C213     CTL2    -0.180000       12.0110           0
     14510 MEMB     109      POPC     H13R     HAL2     0.900000E-01   1.00800           0
     14511 MEMB     109      POPC     H13S     HAL2     0.900000E-01   1.00800           0
     14512 MEMB     109      POPC     C214     CTL2    -0.180000       12.0110           0
     14513 MEMB     109      POPC     H14R     HAL2     0.900000E-01   1.00800           0
     14514 MEMB     109      POPC     H14S     HAL2     0.900000E-01   1.00800           0
     14515 MEMB     109      POPC     C215     CTL2    -0.180000       12.0110           0
     14516 MEMB     109      POPC     H15R     HAL2     0.900000E-01   1.00800           0
     14517 MEMB     109      POPC     H15S     HAL2     0.900000E-01   1.00800           0
     14518 MEMB     109      POPC     C216     CTL2    -0.180000       12.0110           0
     14519 MEMB     109      POPC     H16R     HAL2     0.900000E-01   1.00800           0
     14520 MEMB     109      POPC     H16S     HAL2     0.900000E-01   1.00800           0
     14521 MEMB     109      POPC     C217     CTL2    -0.180000       12.0110           0
     14522 MEMB     109      POPC     H17R     HAL2     0.900000E-01   1.00800           0
     14523 MEMB     109      POPC     H17S     HAL2     0.900000E-01   1.00800           0
     14524 MEMB     109      POPC     C218     CTL3    -0.270000       12.0110           0
     14525 MEMB     109      POPC     H18R     HAL3     0.900000E-01   1.00800           0
     14526 MEMB     109      POPC     H18S     HAL3     0.900000E-01   1.00800           0
     14527 MEMB     109      POPC     H18T     HAL3     0.900000E-01   1.00800           0
     14528 MEMB     109      POPC     C33      CTL2    -0.180000       12.0110           0
     14529 MEMB     109      POPC     H3X      HAL2     0.900000E-01   1.00800           0
     14530 MEMB     109      POPC     H3Y      HAL2     0.900000E-01   1.00800           0
     14531 MEMB     109      POPC     C34      CTL2    -0.180000       12.0110           0
     14532 MEMB     109      POPC     H4X      HAL2     0.900000E-01   1.00800           0
     14533 MEMB     109      POPC     H4Y      HAL2     0.900000E-01   1.00800           0
     14534 MEMB     109      POPC     C35      CTL2    -0.180000       12.0110           0
     14535 MEMB     109      POPC     H5X      HAL2     0.900000E-01   1.00800           0
     14536 MEMB     109      POPC     H5Y      HAL2     0.900000E-01   1.00800           0
     14537 MEMB     109      POPC     C36      CTL2    -0.180000       12.0110           0
     14538 MEMB     109      POPC     H6X      HAL2     0.900000E-01   1.00800           0
     14539 MEMB     109      POPC     H6Y      HAL2     0.900000E-01   1.00800           0
     14540 MEMB     109      POPC     C37      CTL2    -0.180000       12.0110           0
     14541 MEMB     109      POPC     H7X      HAL2     0.900000E-01   1.00800           0
     14542 MEMB     109      POPC     H7Y      HAL2     0.900000E-01   1.00800           0
     14543 MEMB     109      POPC     C38      CTL2    -0.180000       12.0110           0
     14544 MEMB     109      POPC     H8X      HAL2     0.900000E-01   1.00800           0
     14545 MEMB     109      POPC     H8Y      HAL2     0.900000E-01   1.00800           0
     14546 MEMB     109      POPC     C39      CTL2    -0.180000       12.0110           0
     14547 MEMB     109      POPC     H9X      HAL2     0.900000E-01   1.00800           0
     14548 MEMB     109      POPC     H9Y      HAL2     0.900000E-01   1.00800           0
     14549 MEMB     109      POPC     C310     CTL2    -0.180000       12.0110           0
     14550 MEMB     109      POPC     H10X     HAL2     0.900000E-01   1.00800           0
     14551 MEMB     109      POPC     H10Y     HAL2     0.900000E-01   1.00800           0
     14552 MEMB     109      POPC     C311     CTL2    -0.180000       12.0110           0
     14553 MEMB     109      POPC     H11X     HAL2     0.900000E-01   1.00800           0
     14554 MEMB     109      POPC     H11Y     HAL2     0.900000E-01   1.00800           0
     14555 MEMB     109      POPC     C312     CTL2    -0.180000       12.0110           0
     14556 MEMB     109      POPC     H12X     HAL2     0.900000E-01   1.00800           0
     14557 MEMB     109      POPC     H12Y     HAL2     0.900000E-01   1.00800           0
     14558 MEMB     109      POPC     C313     CTL2    -0.180000       12.0110           0
     14559 MEMB     109      POPC     H13X     HAL2     0.900000E-01   1.00800           0
     14560 MEMB     109      POPC     H13Y     HAL2     0.900000E-01   1.00800           0
     14561 MEMB     109      POPC     C314     CTL2    -0.180000       12.0110           0
     14562 MEMB     109      POPC     H14X     HAL2     0.900000E-01   1.00800           0
     14563 MEMB     109      POPC     H14Y     HAL2     0.900000E-01   1.00800           0
     14564 MEMB     109      POPC     C315     CTL2    -0.180000       12.0110           0
     14565 MEMB     109      POPC     H15X     HAL2     0.900000E-01   1.00800           0
     14566 MEMB     109      POPC     H15Y     HAL2     0.900000E-01   1.00800           0
     14567 MEMB     109      POPC     C316     CTL3    -0.270000       12.0110           0
     14568 MEMB     109      POPC     H16X     HAL3     0.900000E-01   1.00800           0
     14569 MEMB     109      POPC     H16Y     HAL3     0.900000E-01   1.00800           0
     14570 MEMB     109      POPC     H16Z     HAL3     0.900000E-01   1.00800           0
     14571 MEMB     110      POPS     N        NH3L    -0.300000       14.0070           0
     14572 MEMB     110      POPS     HN1      HCL      0.330000       1.00800           0
     14573 MEMB     110      POPS     HN2      HCL      0.330000       1.00800           0
     14574 MEMB     110      POPS     HN3      HCL      0.330000       1.00800           0
     14575 MEMB     110      POPS     C12      CTL1     0.210000       12.0110           0
     14576 MEMB     110      POPS     H12A     HBL      0.100000       1.00800           0
     14577 MEMB     110      POPS     C13      CCL      0.340000       12.0110           0
     14578 MEMB     110      POPS     O13A     OCL     -0.670000       15.9994           0
     14579 MEMB     110      POPS     O13B     OCL     -0.670000       15.9994           0
     14580 MEMB     110      POPS     C11      CTL2    -0.800000E-01   12.0110           0
     14581 MEMB     110      POPS     H11A     HAL2     0.900000E-01   1.00800           0
     14582 MEMB     110      POPS     H11B     HAL2     0.900000E-01   1.00800           0
     14583 MEMB     110      POPS     P        PL        1.50000       30.9740           0
     14584 MEMB     110      POPS     O13      O2L     -0.780000       15.9994           0
     14585 MEMB     110      POPS     O14      O2L     -0.780000       15.9994           0
     14586 MEMB     110      POPS     O12      OSLP    -0.570000       15.9994           0
     14587 MEMB     110      POPS     O11      OSLP    -0.570000       15.9994           0
     14588 MEMB     110      POPS     C1       CTL2    -0.800000E-01   12.0110           0
     14589 MEMB     110      POPS     HA       HAL2     0.900000E-01   1.00800           0
     14590 MEMB     110      POPS     HB       HAL2     0.900000E-01   1.00800           0
     14591 MEMB     110      POPS     C2       CTL1     0.170000       12.0110           0
     14592 MEMB     110      POPS     HS       HAL1     0.900000E-01   1.00800           0
     14593 MEMB     110      POPS     O21      OSL     -0.490000       15.9994           0
     14594 MEMB     110      POPS     C21      CL       0.900000       12.0110           0
     14595 MEMB     110      POPS     O22      OBL     -0.630000       15.9994           0
     14596 MEMB     110      POPS     C22      CTL2    -0.220000       12.0110           0
     14597 MEMB     110      POPS     H2R      HAL2     0.900000E-01   1.00800           0
     14598 MEMB     110      POPS     H2S      HAL2     0.900000E-01   1.00800           0
     14599 MEMB     110      POPS     C3       CTL2     0.800000E-01   12.0110           0
     14600 MEMB     110      POPS     HX       HAL2     0.900000E-01   1.00800           0
     14601 MEMB     110      POPS     HY       HAL2     0.900000E-01   1.00800           0
     14602 MEMB     110      POPS     O31      OSL     -0.490000       15.9994           0
     14603 MEMB     110      POPS     C31      CL       0.900000       12.0110           0
     14604 MEMB     110      POPS     O32      OBL     -0.630000       15.9994           0
     14605 MEMB     110      POPS     C32      CTL2    -0.220000       12.0110           0
     14606 MEMB     110      POPS     H2X      HAL2     0.900000E-01   1.00800           0
     14607 MEMB     110      POPS     H2Y      HAL2     0.900000E-01   1.00800           0
     14608 MEMB     110      POPS     C23      CTL2    -0.180000       12.0110           0
     14609 MEMB     110      POPS     H3R      HAL2     0.900000E-01   1.00800           0
     14610 MEMB     110      POPS     H3S      HAL2     0.900000E-01   1.00800           0
     14611 MEMB     110      POPS     C24      CTL2    -0.180000       12.0110           0
     14612 MEMB     110      POPS     H4R      HAL2     0.900000E-01   1.00800           0
     14613 MEMB     110      POPS     H4S      HAL2     0.900000E-01   1.00800           0
     14614 MEMB     110      POPS     C25      CTL2    -0.180000       12.0110           0
     14615 MEMB     110      POPS     H5R      HAL2     0.900000E-01   1.00800           0
     14616 MEMB     110      POPS     H5S      HAL2     0.900000E-01   1.00800           0
     14617 MEMB     110      POPS     C26      CTL2    -0.180000       12.0110           0
     14618 MEMB     110      POPS     H6R      HAL2     0.900000E-01   1.00800           0
     14619 MEMB     110      POPS     H6S      HAL2     0.900000E-01   1.00800           0
     14620 MEMB     110      POPS     C27      CTL2    -0.180000       12.0110           0
     14621 MEMB     110      POPS     H7R      HAL2     0.900000E-01   1.00800           0
     14622 MEMB     110      POPS     H7S      HAL2     0.900000E-01   1.00800           0
     14623 MEMB     110      POPS     C28      CTL2    -0.180000       12.0110           0
     14624 MEMB     110      POPS     H8R      HAL2     0.900000E-01   1.00800           0
     14625 MEMB     110      POPS     H8S      HAL2     0.900000E-01   1.00800           0
     14626 MEMB     110      POPS     C29      CEL1    -0.150000       12.0110           0
     14627 MEMB     110      POPS     H91      HEL1     0.150000       1.00800           0
     14628 MEMB     110      POPS     C210     CEL1    -0.150000       12.0110           0
     14629 MEMB     110      POPS     H101     HEL1     0.150000       1.00800           0
     14630 MEMB     110      POPS     C211     CTL2    -0.180000       12.0110           0
     14631 MEMB     110      POPS     H11R     HAL2     0.900000E-01   1.00800           0
     14632 MEMB     110      POPS     H11S     HAL2     0.900000E-01   1.00800           0
     14633 MEMB     110      POPS     C212     CTL2    -0.180000       12.0110           0
     14634 MEMB     110      POPS     H12R     HAL2     0.900000E-01   1.00800           0
     14635 MEMB     110      POPS     H12S     HAL2     0.900000E-01   1.00800           0
     14636 MEMB     110      POPS     C213     CTL2    -0.180000       12.0110           0
     14637 MEMB     110      POPS     H13R     HAL2     0.900000E-01   1.00800           0
     14638 MEMB     110      POPS     H13S     HAL2     0.900000E-01   1.00800           0
     14639 MEMB     110      POPS     C214     CTL2    -0.180000       12.0110           0
     14640 MEMB     110      POPS     H14R     HAL2     0.900000E-01   1.00800           0
     14641 MEMB     110      POPS     H14S     HAL2     0.900000E-01   1.00800           0
     14642 MEMB     110      POPS     C215     CTL2    -0.180000       12.0110           0
     14643 MEMB     110      POPS     H15R     HAL2     0.900000E-01   1.00800           0
     14644 MEMB     110      POPS     H15S     HAL2     0.900000E-01   1.00800           0
     14645 MEMB     110      POPS     C216     CTL2    -0.180000       12.0110           0
     14646 MEMB     110      POPS     H16R     HAL2     0.900000E-01   1.00800           0
     14647 MEMB     110      POPS     H16S     HAL2     0.900000E-01   1.00800           0
     14648 MEMB     110      POPS     C217     CTL2    -0.180000       12.0110           0
     14649 MEMB     110      POPS     H17R     HAL2     0.900000E-01   1.00800           0
     14650 MEMB     110      POPS     H17S     HAL2     0.900000E-01   1.00800           0
     14651 MEMB     110      POPS     C218     CTL3    -0.270000       12.0110           0
     14652 MEMB     110      POPS     H18R     HAL3     0.900000E-01   1.00800           0
     14653 MEMB     110      POPS     H18S     HAL3     0.900000E-01   1.00800           0
     14654 MEMB     110      POPS     H18T     HAL3     0.900000E-01   1.00800           0
     14655 MEMB     110      POPS     C33      CTL2    -0.180000       12.0110           0
     14656 MEMB     110      POPS     H3X      HAL2     0.900000E-01   1.00800           0
     14657 MEMB     110      POPS     H3Y      HAL2     0.900000E-01   1.00800           0
     14658 MEMB     110      POPS     C34      CTL2    -0.180000       12.0110           0
     14659 MEMB     110      POPS     H4X      HAL2     0.900000E-01   1.00800           0
     14660 MEMB     110      POPS     H4Y      HAL2     0.900000E-01   1.00800           0
     14661 MEMB     110      POPS     C35      CTL2    -0.180000       12.0110           0
     14662 MEMB     110      POPS     H5X      HAL2     0.900000E-01   1.00800           0
     14663 MEMB     110      POPS     H5Y      HAL2     0.900000E-01   1.00800           0
     14664 MEMB     110      POPS     C36      CTL2    -0.180000       12.0110           0
     14665 MEMB     110      POPS     H6X      HAL2     0.900000E-01   1.00800           0
     14666 MEMB     110      POPS     H6Y      HAL2     0.900000E-01   1.00800           0
     14667 MEMB     110      POPS     C37      CTL2    -0.180000       12.0110           0
     14668 MEMB     110      POPS     H7X      HAL2     0.900000E-01   1.00800           0
     14669 MEMB     110      POPS     H7Y      HAL2     0.900000E-01   1.00800           0
     14670 MEMB     110      POPS     C38      CTL2    -0.180000       12.0110           0
     14671 MEMB     110      POPS     H8X      HAL2     0.900000E-01   1.00800           0
     14672 MEMB     110      POPS     H8Y      HAL2     0.900000E-01   1.00800           0
     14673 MEMB     110      POPS     C39      CTL2    -0.180000       12.0110           0
     14674 MEMB     110      POPS     H9X      HAL2     0.900000E-01   1.00800           0
     14675 MEMB     110      POPS     H9Y      HAL2     0.900000E-01   1.00800           0
     14676 MEMB     110      POPS     C310     CTL2    -0.180000       12.0110           0
     14677 MEMB     110      POPS     H10X     HAL2     0.900000E-01   1.00800           0
     14678 MEMB     110      POPS     H10Y     HAL2     0.900000E-01   1.00800           0
     14679 MEMB     110      POPS     C311     CTL2    -0.180000       12.0110           0
     14680 MEMB     110      POPS     H11X     HAL2     0.900000E-01   1.00800           0
     14681 MEMB     110      POPS     H11Y     HAL2     0.900000E-01   1.00800           0
     14682 MEMB     110      POPS     C312     CTL2    -0.180000       12.0110           0
     14683 MEMB     110      POPS     H12X     HAL2     0.900000E-01   1.00800           0
     14684 MEMB     110      POPS     H12Y     HAL2     0.900000E-01   1.00800           0
     14685 MEMB     110      POPS     C313     CTL2    -0.180000       12.0110           0
     14686 MEMB     110      POPS     H13X     HAL2     0.900000E-01   1.00800           0
     14687 MEMB     110      POPS     H13Y     HAL2     0.900000E-01   1.00800           0
     14688 MEMB     110      POPS     C314     CTL2    -0.180000       12.0110           0
     14689 MEMB     110      POPS     H14X     HAL2     0.900000E-01   1.00800           0
     14690 MEMB     110      POPS     H14Y     HAL2     0.900000E-01   1.00800           0
     14691 MEMB     110      POPS     C315     CTL2    -0.180000       12.0110           0
     14692 MEMB     110      POPS     H15X     HAL2     0.900000E-01   1.00800           0
     14693 MEMB     110      POPS     H15Y     HAL2     0.900000E-01   1.00800           0
     14694 MEMB     110      POPS     C316     CTL3    -0.270000       12.0110           0
     14695 MEMB     110      POPS     H16X     HAL3     0.900000E-01   1.00800           0
     14696 MEMB     110      POPS     H16Y     HAL3     0.900000E-01   1.00800           0
     14697 MEMB     110      POPS     H16Z     HAL3     0.900000E-01   1.00800           0
     14698 MEMB     111      POPS     N        NH3L    -0.300000       14.0070           0
     14699 MEMB     111      POPS     HN1      HCL      0.330000       1.00800           0
     14700 MEMB     111      POPS     HN2      HCL      0.330000       1.00800           0
     14701 MEMB     111      POPS     HN3      HCL      0.330000       1.00800           0
     14702 MEMB     111      POPS     C12      CTL1     0.210000       12.0110           0
     14703 MEMB     111      POPS     H12A     HBL      0.100000       1.00800           0
     14704 MEMB     111      POPS     C13      CCL      0.340000       12.0110           0
     14705 MEMB     111      POPS     O13A     OCL     -0.670000       15.9994           0
     14706 MEMB     111      POPS     O13B     OCL     -0.670000       15.9994           0
     14707 MEMB     111      POPS     C11      CTL2    -0.800000E-01   12.0110           0
     14708 MEMB     111      POPS     H11A     HAL2     0.900000E-01   1.00800           0
     14709 MEMB     111      POPS     H11B     HAL2     0.900000E-01   1.00800           0
     14710 MEMB     111      POPS     P        PL        1.50000       30.9740           0
     14711 MEMB     111      POPS     O13      O2L     -0.780000       15.9994           0
     14712 MEMB     111      POPS     O14      O2L     -0.780000       15.9994           0
     14713 MEMB     111      POPS     O12      OSLP    -0.570000       15.9994           0
     14714 MEMB     111      POPS     O11      OSLP    -0.570000       15.9994           0
     14715 MEMB     111      POPS     C1       CTL2    -0.800000E-01   12.0110           0
     14716 MEMB     111      POPS     HA       HAL2     0.900000E-01   1.00800           0
     14717 MEMB     111      POPS     HB       HAL2     0.900000E-01   1.00800           0
     14718 MEMB     111      POPS     C2       CTL1     0.170000       12.0110           0
     14719 MEMB     111      POPS     HS       HAL1     0.900000E-01   1.00800           0
     14720 MEMB     111      POPS     O21      OSL     -0.490000       15.9994           0
     14721 MEMB     111      POPS     C21      CL       0.900000       12.0110           0
     14722 MEMB     111      POPS     O22      OBL     -0.630000       15.9994           0
     14723 MEMB     111      POPS     C22      CTL2    -0.220000       12.0110           0
     14724 MEMB     111      POPS     H2R      HAL2     0.900000E-01   1.00800           0
     14725 MEMB     111      POPS     H2S      HAL2     0.900000E-01   1.00800           0
     14726 MEMB     111      POPS     C3       CTL2     0.800000E-01   12.0110           0
     14727 MEMB     111      POPS     HX       HAL2     0.900000E-01   1.00800           0
     14728 MEMB     111      POPS     HY       HAL2     0.900000E-01   1.00800           0
     14729 MEMB     111      POPS     O31      OSL     -0.490000       15.9994           0
     14730 MEMB     111      POPS     C31      CL       0.900000       12.0110           0
     14731 MEMB     111      POPS     O32      OBL     -0.630000       15.9994           0
     14732 MEMB     111      POPS     C32      CTL2    -0.220000       12.0110           0
     14733 MEMB     111      POPS     H2X      HAL2     0.900000E-01   1.00800           0
     14734 MEMB     111      POPS     H2Y      HAL2     0.900000E-01   1.00800           0
     14735 MEMB     111      POPS     C23      CTL2    -0.180000       12.0110           0
     14736 MEMB     111      POPS     H3R      HAL2     0.900000E-01   1.00800           0
     14737 MEMB     111      POPS     H3S      HAL2     0.900000E-01   1.00800           0
     14738 MEMB     111      POPS     C24      CTL2    -0.180000       12.0110           0
     14739 MEMB     111      POPS     H4R      HAL2     0.900000E-01   1.00800           0
     14740 MEMB     111      POPS     H4S      HAL2     0.900000E-01   1.00800           0
     14741 MEMB     111      POPS     C25      CTL2    -0.180000       12.0110           0
     14742 MEMB     111      POPS     H5R      HAL2     0.900000E-01   1.00800           0
     14743 MEMB     111      POPS     H5S      HAL2     0.900000E-01   1.00800           0
     14744 MEMB     111      POPS     C26      CTL2    -0.180000       12.0110           0
     14745 MEMB     111      POPS     H6R      HAL2     0.900000E-01   1.00800           0
     14746 MEMB     111      POPS     H6S      HAL2     0.900000E-01   1.00800           0
     14747 MEMB     111      POPS     C27      CTL2    -0.180000       12.0110           0
     14748 MEMB     111      POPS     H7R      HAL2     0.900000E-01   1.00800           0
     14749 MEMB     111      POPS     H7S      HAL2     0.900000E-01   1.00800           0
     14750 MEMB     111      POPS     C28      CTL2    -0.180000       12.0110           0
     14751 MEMB     111      POPS     H8R      HAL2     0.900000E-01   1.00800           0
     14752 MEMB     111      POPS     H8S      HAL2     0.900000E-01   1.00800           0
     14753 MEMB     111      POPS     C29      CEL1    -0.150000       12.0110           0
     14754 MEMB     111      POPS     H91      HEL1     0.150000       1.00800           0
     14755 MEMB     111      POPS     C210     CEL1    -0.150000       12.0110           0
     14756 MEMB     111      POPS     H101     HEL1     0.150000       1.00800           0
     14757 MEMB     111      POPS     C211     CTL2    -0.180000       12.0110           0
     14758 MEMB     111      POPS     H11R     HAL2     0.900000E-01   1.00800           0
     14759 MEMB     111      POPS     H11S     HAL2     0.900000E-01   1.00800           0
     14760 MEMB     111      POPS     C212     CTL2    -0.180000       12.0110           0
     14761 MEMB     111      POPS     H12R     HAL2     0.900000E-01   1.00800           0
     14762 MEMB     111      POPS     H12S     HAL2     0.900000E-01   1.00800           0
     14763 MEMB     111      POPS     C213     CTL2    -0.180000       12.0110           0
     14764 MEMB     111      POPS     H13R     HAL2     0.900000E-01   1.00800           0
     14765 MEMB     111      POPS     H13S     HAL2     0.900000E-01   1.00800           0
     14766 MEMB     111      POPS     C214     CTL2    -0.180000       12.0110           0
     14767 MEMB     111      POPS     H14R     HAL2     0.900000E-01   1.00800           0
     14768 MEMB     111      POPS     H14S     HAL2     0.900000E-01   1.00800           0
     14769 MEMB     111      POPS     C215     CTL2    -0.180000       12.0110           0
     14770 MEMB     111      POPS     H15R     HAL2     0.900000E-01   1.00800           0
     14771 MEMB     111      POPS     H15S     HAL2     0.900000E-01   1.00800           0
     14772 MEMB     111      POPS     C216     CTL2    -0.180000       12.0110           0
     14773 MEMB     111      POPS     H16R     HAL2     0.900000E-01   1.00800           0
     14774 MEMB     111      POPS     H16S     HAL2     0.900000E-01   1.00800           0
     14775 MEMB     111      POPS     C217     CTL2    -0.180000       12.0110           0
     14776 MEMB     111      POPS     H17R     HAL2     0.900000E-01   1.00800           0
     14777 MEMB     111      POPS     H17S     HAL2     0.900000E-01   1.00800           0
     14778 MEMB     111      POPS     C218     CTL3    -0.270000       12.0110           0
     14779 MEMB     111      POPS     H18R     HAL3     0.900000E-01   1.00800           0
     14780 MEMB     111      POPS     H18S     HAL3     0.900000E-01   1.00800           0
     14781 MEMB     111      POPS     H18T     HAL3     0.900000E-01   1.00800           0
     14782 MEMB     111      POPS     C33      CTL2    -0.180000       12.0110           0
     14783 MEMB     111      POPS     H3X      HAL2     0.900000E-01   1.00800           0
     14784 MEMB     111      POPS     H3Y      HAL2     0.900000E-01   1.00800           0
     14785 MEMB     111      POPS     C34      CTL2    -0.180000       12.0110           0
     14786 MEMB     111      POPS     H4X      HAL2     0.900000E-01   1.00800           0
     14787 MEMB     111      POPS     H4Y      HAL2     0.900000E-01   1.00800           0
     14788 MEMB     111      POPS     C35      CTL2    -0.180000       12.0110           0
     14789 MEMB     111      POPS     H5X      HAL2     0.900000E-01   1.00800           0
     14790 MEMB     111      POPS     H5Y      HAL2     0.900000E-01   1.00800           0
     14791 MEMB     111      POPS     C36      CTL2    -0.180000       12.0110           0
     14792 MEMB     111      POPS     H6X      HAL2     0.900000E-01   1.00800           0
     14793 MEMB     111      POPS     H6Y      HAL2     0.900000E-01   1.00800           0
     14794 MEMB     111      POPS     C37      CTL2    -0.180000       12.0110           0
     14795 MEMB     111      POPS     H7X      HAL2     0.900000E-01   1.00800           0
     14796 MEMB     111      POPS     H7Y      HAL2     0.900000E-01   1.00800           0
     14797 MEMB     111      POPS     C38      CTL2    -0.180000       12.0110           0
     14798 MEMB     111      POPS     H8X      HAL2     0.900000E-01   1.00800           0
     14799 MEMB     111      POPS     H8Y      HAL2     0.900000E-01   1.00800           0
     14800 MEMB     111      POPS     C39      CTL2    -0.180000       12.0110           0
     14801 MEMB     111      POPS     H9X      HAL2     0.900000E-01   1.00800           0
     14802 MEMB     111      POPS     H9Y      HAL2     0.900000E-01   1.00800           0
     14803 MEMB     111      POPS     C310     CTL2    -0.180000       12.0110           0
     14804 MEMB     111      POPS     H10X     HAL2     0.900000E-01   1.00800           0
     14805 MEMB     111      POPS     H10Y     HAL2     0.900000E-01   1.00800           0
     14806 MEMB     111      POPS     C311     CTL2    -0.180000       12.0110           0
     14807 MEMB     111      POPS     H11X     HAL2     0.900000E-01   1.00800           0
     14808 MEMB     111      POPS     H11Y     HAL2     0.900000E-01   1.00800           0
     14809 MEMB     111      POPS     C312     CTL2    -0.180000       12.0110           0
     14810 MEMB     111      POPS     H12X     HAL2     0.900000E-01   1.00800           0
     14811 MEMB     111      POPS     H12Y     HAL2     0.900000E-01   1.00800           0
     14812 MEMB     111      POPS     C313     CTL2    -0.180000       12.0110           0
     14813 MEMB     111      POPS     H13X     HAL2     0.900000E-01   1.00800           0
     14814 MEMB     111      POPS     H13Y     HAL2     0.900000E-01   1.00800           0
     14815 MEMB     111      POPS     C314     CTL2    -0.180000       12.0110           0
     14816 MEMB     111      POPS     H14X     HAL2     0.900000E-01   1.00800           0
     14817 MEMB     111      POPS     H14Y     HAL2     0.900000E-01   1.00800           0
     14818 MEMB     111      POPS     C315     CTL2    -0.180000       12.0110           0
     14819 MEMB     111      POPS     H15X     HAL2     0.900000E-01   1.00800           0
     14820 MEMB     111      POPS     H15Y     HAL2     0.900000E-01   1.00800           0
     14821 MEMB     111      POPS     C316     CTL3    -0.270000       12.0110           0
     14822 MEMB     111      POPS     H16X     HAL3     0.900000E-01   1.00800           0
     14823 MEMB     111      POPS     H16Y     HAL3     0.900000E-01   1.00800           0
     14824 MEMB     111      POPS     H16Z     HAL3     0.900000E-01   1.00800           0
     14825 MEMB     112      POPC     N        NTL     -0.600000       14.0070           0
     14826 MEMB     112      POPC     C12      CTL2    -0.100000       12.0110           0
     14827 MEMB     112      POPC     H12A     HL       0.250000       1.00800           0
     14828 MEMB     112      POPC     H12B     HL       0.250000       1.00800           0
     14829 MEMB     112      POPC     C13      CTL5    -0.350000       12.0110           0
     14830 MEMB     112      POPC     H13A     HL       0.250000       1.00800           0
     14831 MEMB     112      POPC     H13B     HL       0.250000       1.00800           0
     14832 MEMB     112      POPC     H13C     HL       0.250000       1.00800           0
     14833 MEMB     112      POPC     C14      CTL5    -0.350000       12.0110           0
     14834 MEMB     112      POPC     H14A     HL       0.250000       1.00800           0
     14835 MEMB     112      POPC     H14B     HL       0.250000       1.00800           0
     14836 MEMB     112      POPC     H14C     HL       0.250000       1.00800           0
     14837 MEMB     112      POPC     C15      CTL5    -0.350000       12.0110           0
     14838 MEMB     112      POPC     H15A     HL       0.250000       1.00800           0
     14839 MEMB     112      POPC     H15B     HL       0.250000       1.00800           0
     14840 MEMB     112      POPC     H15C     HL       0.250000       1.00800           0
     14841 MEMB     112      POPC     C11      CTL2    -0.800000E-01   12.0110           0
     14842 MEMB     112      POPC     H11A     HAL2     0.900000E-01   1.00800           0
     14843 MEMB     112      POPC     H11B     HAL2     0.900000E-01   1.00800           0
     14844 MEMB     112      POPC     P        PL        1.50000       30.9740           0
     14845 MEMB     112      POPC     O13      O2L     -0.780000       15.9994           0
     14846 MEMB     112      POPC     O14      O2L     -0.780000       15.9994           0
     14847 MEMB     112      POPC     O12      OSLP    -0.570000       15.9994           0
     14848 MEMB     112      POPC     O11      OSLP    -0.570000       15.9994           0
     14849 MEMB     112      POPC     C1       CTL2    -0.800000E-01   12.0110           0
     14850 MEMB     112      POPC     HA       HAL2     0.900000E-01   1.00800           0
     14851 MEMB     112      POPC     HB       HAL2     0.900000E-01   1.00800           0
     14852 MEMB     112      POPC     C2       CTL1     0.170000       12.0110           0
     14853 MEMB     112      POPC     HS       HAL1     0.900000E-01   1.00800           0
     14854 MEMB     112      POPC     O21      OSL     -0.490000       15.9994           0
     14855 MEMB     112      POPC     C21      CL       0.900000       12.0110           0
     14856 MEMB     112      POPC     O22      OBL     -0.630000       15.9994           0
     14857 MEMB     112      POPC     C22      CTL2    -0.220000       12.0110           0
     14858 MEMB     112      POPC     H2R      HAL2     0.900000E-01   1.00800           0
     14859 MEMB     112      POPC     H2S      HAL2     0.900000E-01   1.00800           0
     14860 MEMB     112      POPC     C3       CTL2     0.800000E-01   12.0110           0
     14861 MEMB     112      POPC     HX       HAL2     0.900000E-01   1.00800           0
     14862 MEMB     112      POPC     HY       HAL2     0.900000E-01   1.00800           0
     14863 MEMB     112      POPC     O31      OSL     -0.490000       15.9994           0
     14864 MEMB     112      POPC     C31      CL       0.900000       12.0110           0
     14865 MEMB     112      POPC     O32      OBL     -0.630000       15.9994           0
     14866 MEMB     112      POPC     C32      CTL2    -0.220000       12.0110           0
     14867 MEMB     112      POPC     H2X      HAL2     0.900000E-01   1.00800           0
     14868 MEMB     112      POPC     H2Y      HAL2     0.900000E-01   1.00800           0
     14869 MEMB     112      POPC     C23      CTL2    -0.180000       12.0110           0
     14870 MEMB     112      POPC     H3R      HAL2     0.900000E-01   1.00800           0
     14871 MEMB     112      POPC     H3S      HAL2     0.900000E-01   1.00800           0
     14872 MEMB     112      POPC     C24      CTL2    -0.180000       12.0110           0
     14873 MEMB     112      POPC     H4R      HAL2     0.900000E-01   1.00800           0
     14874 MEMB     112      POPC     H4S      HAL2     0.900000E-01   1.00800           0
     14875 MEMB     112      POPC     C25      CTL2    -0.180000       12.0110           0
     14876 MEMB     112      POPC     H5R      HAL2     0.900000E-01   1.00800           0
     14877 MEMB     112      POPC     H5S      HAL2     0.900000E-01   1.00800           0
     14878 MEMB     112      POPC     C26      CTL2    -0.180000       12.0110           0
     14879 MEMB     112      POPC     H6R      HAL2     0.900000E-01   1.00800           0
     14880 MEMB     112      POPC     H6S      HAL2     0.900000E-01   1.00800           0
     14881 MEMB     112      POPC     C27      CTL2    -0.180000       12.0110           0
     14882 MEMB     112      POPC     H7R      HAL2     0.900000E-01   1.00800           0
     14883 MEMB     112      POPC     H7S      HAL2     0.900000E-01   1.00800           0
     14884 MEMB     112      POPC     C28      CTL2    -0.180000       12.0110           0
     14885 MEMB     112      POPC     H8R      HAL2     0.900000E-01   1.00800           0
     14886 MEMB     112      POPC     H8S      HAL2     0.900000E-01   1.00800           0
     14887 MEMB     112      POPC     C29      CEL1    -0.150000       12.0110           0
     14888 MEMB     112      POPC     H91      HEL1     0.150000       1.00800           0
     14889 MEMB     112      POPC     C210     CEL1    -0.150000       12.0110           0
     14890 MEMB     112      POPC     H101     HEL1     0.150000       1.00800           0
     14891 MEMB     112      POPC     C211     CTL2    -0.180000       12.0110           0
     14892 MEMB     112      POPC     H11R     HAL2     0.900000E-01   1.00800           0
     14893 MEMB     112      POPC     H11S     HAL2     0.900000E-01   1.00800           0
     14894 MEMB     112      POPC     C212     CTL2    -0.180000       12.0110           0
     14895 MEMB     112      POPC     H12R     HAL2     0.900000E-01   1.00800           0
     14896 MEMB     112      POPC     H12S     HAL2     0.900000E-01   1.00800           0
     14897 MEMB     112      POPC     C213     CTL2    -0.180000       12.0110           0
     14898 MEMB     112      POPC     H13R     HAL2     0.900000E-01   1.00800           0
     14899 MEMB     112      POPC     H13S     HAL2     0.900000E-01   1.00800           0
     14900 MEMB     112      POPC     C214     CTL2    -0.180000       12.0110           0
     14901 MEMB     112      POPC     H14R     HAL2     0.900000E-01   1.00800           0
     14902 MEMB     112      POPC     H14S     HAL2     0.900000E-01   1.00800           0
     14903 MEMB     112      POPC     C215     CTL2    -0.180000       12.0110           0
     14904 MEMB     112      POPC     H15R     HAL2     0.900000E-01   1.00800           0
     14905 MEMB     112      POPC     H15S     HAL2     0.900000E-01   1.00800           0
     14906 MEMB     112      POPC     C216     CTL2    -0.180000       12.0110           0
     14907 MEMB     112      POPC     H16R     HAL2     0.900000E-01   1.00800           0
     14908 MEMB     112      POPC     H16S     HAL2     0.900000E-01   1.00800           0
     14909 MEMB     112      POPC     C217     CTL2    -0.180000       12.0110           0
     14910 MEMB     112      POPC     H17R     HAL2     0.900000E-01   1.00800           0
     14911 MEMB     112      POPC     H17S     HAL2     0.900000E-01   1.00800           0
     14912 MEMB     112      POPC     C218     CTL3    -0.270000       12.0110           0
     14913 MEMB     112      POPC     H18R     HAL3     0.900000E-01   1.00800           0
     14914 MEMB     112      POPC     H18S     HAL3     0.900000E-01   1.00800           0
     14915 MEMB     112      POPC     H18T     HAL3     0.900000E-01   1.00800           0
     14916 MEMB     112      POPC     C33      CTL2    -0.180000       12.0110           0
     14917 MEMB     112      POPC     H3X      HAL2     0.900000E-01   1.00800           0
     14918 MEMB     112      POPC     H3Y      HAL2     0.900000E-01   1.00800           0
     14919 MEMB     112      POPC     C34      CTL2    -0.180000       12.0110           0
     14920 MEMB     112      POPC     H4X      HAL2     0.900000E-01   1.00800           0
     14921 MEMB     112      POPC     H4Y      HAL2     0.900000E-01   1.00800           0
     14922 MEMB     112      POPC     C35      CTL2    -0.180000       12.0110           0
     14923 MEMB     112      POPC     H5X      HAL2     0.900000E-01   1.00800           0
     14924 MEMB     112      POPC     H5Y      HAL2     0.900000E-01   1.00800           0
     14925 MEMB     112      POPC     C36      CTL2    -0.180000       12.0110           0
     14926 MEMB     112      POPC     H6X      HAL2     0.900000E-01   1.00800           0
     14927 MEMB     112      POPC     H6Y      HAL2     0.900000E-01   1.00800           0
     14928 MEMB     112      POPC     C37      CTL2    -0.180000       12.0110           0
     14929 MEMB     112      POPC     H7X      HAL2     0.900000E-01   1.00800           0
     14930 MEMB     112      POPC     H7Y      HAL2     0.900000E-01   1.00800           0
     14931 MEMB     112      POPC     C38      CTL2    -0.180000       12.0110           0
     14932 MEMB     112      POPC     H8X      HAL2     0.900000E-01   1.00800           0
     14933 MEMB     112      POPC     H8Y      HAL2     0.900000E-01   1.00800           0
     14934 MEMB     112      POPC     C39      CTL2    -0.180000       12.0110           0
     14935 MEMB     112      POPC     H9X      HAL2     0.900000E-01   1.00800           0
     14936 MEMB     112      POPC     H9Y      HAL2     0.900000E-01   1.00800           0
     14937 MEMB     112      POPC     C310     CTL2    -0.180000       12.0110           0
     14938 MEMB     112      POPC     H10X     HAL2     0.900000E-01   1.00800           0
     14939 MEMB     112      POPC     H10Y     HAL2     0.900000E-01   1.00800           0
     14940 MEMB     112      POPC     C311     CTL2    -0.180000       12.0110           0
     14941 MEMB     112      POPC     H11X     HAL2     0.900000E-01   1.00800           0
     14942 MEMB     112      POPC     H11Y     HAL2     0.900000E-01   1.00800           0
     14943 MEMB     112      POPC     C312     CTL2    -0.180000       12.0110           0
     14944 MEMB     112      POPC     H12X     HAL2     0.900000E-01   1.00800           0
     14945 MEMB     112      POPC     H12Y     HAL2     0.900000E-01   1.00800           0
     14946 MEMB     112      POPC     C313     CTL2    -0.180000       12.0110           0
     14947 MEMB     112      POPC     H13X     HAL2     0.900000E-01   1.00800           0
     14948 MEMB     112      POPC     H13Y     HAL2     0.900000E-01   1.00800           0
     14949 MEMB     112      POPC     C314     CTL2    -0.180000       12.0110           0
     14950 MEMB     112      POPC     H14X     HAL2     0.900000E-01   1.00800           0
     14951 MEMB     112      POPC     H14Y     HAL2     0.900000E-01   1.00800           0
     14952 MEMB     112      POPC     C315     CTL2    -0.180000       12.0110           0
     14953 MEMB     112      POPC     H15X     HAL2     0.900000E-01   1.00800           0
     14954 MEMB     112      POPC     H15Y     HAL2     0.900000E-01   1.00800           0
     14955 MEMB     112      POPC     C316     CTL3    -0.270000       12.0110           0
     14956 MEMB     112      POPC     H16X     HAL3     0.900000E-01   1.00800           0
     14957 MEMB     112      POPC     H16Y     HAL3     0.900000E-01   1.00800           0
     14958 MEMB     112      POPC     H16Z     HAL3     0.900000E-01   1.00800           0
     14959 MEMB     113      POPC     N        NTL     -0.600000       14.0070           0
     14960 MEMB     113      POPC     C12      CTL2    -0.100000       12.0110           0
     14961 MEMB     113      POPC     H12A     HL       0.250000       1.00800           0
     14962 MEMB     113      POPC     H12B     HL       0.250000       1.00800           0
     14963 MEMB     113      POPC     C13      CTL5    -0.350000       12.0110           0
     14964 MEMB     113      POPC     H13A     HL       0.250000       1.00800           0
     14965 MEMB     113      POPC     H13B     HL       0.250000       1.00800           0
     14966 MEMB     113      POPC     H13C     HL       0.250000       1.00800           0
     14967 MEMB     113      POPC     C14      CTL5    -0.350000       12.0110           0
     14968 MEMB     113      POPC     H14A     HL       0.250000       1.00800           0
     14969 MEMB     113      POPC     H14B     HL       0.250000       1.00800           0
     14970 MEMB     113      POPC     H14C     HL       0.250000       1.00800           0
     14971 MEMB     113      POPC     C15      CTL5    -0.350000       12.0110           0
     14972 MEMB     113      POPC     H15A     HL       0.250000       1.00800           0
     14973 MEMB     113      POPC     H15B     HL       0.250000       1.00800           0
     14974 MEMB     113      POPC     H15C     HL       0.250000       1.00800           0
     14975 MEMB     113      POPC     C11      CTL2    -0.800000E-01   12.0110           0
     14976 MEMB     113      POPC     H11A     HAL2     0.900000E-01   1.00800           0
     14977 MEMB     113      POPC     H11B     HAL2     0.900000E-01   1.00800           0
     14978 MEMB     113      POPC     P        PL        1.50000       30.9740           0
     14979 MEMB     113      POPC     O13      O2L     -0.780000       15.9994           0
     14980 MEMB     113      POPC     O14      O2L     -0.780000       15.9994           0
     14981 MEMB     113      POPC     O12      OSLP    -0.570000       15.9994           0
     14982 MEMB     113      POPC     O11      OSLP    -0.570000       15.9994           0
     14983 MEMB     113      POPC     C1       CTL2    -0.800000E-01   12.0110           0
     14984 MEMB     113      POPC     HA       HAL2     0.900000E-01   1.00800           0
     14985 MEMB     113      POPC     HB       HAL2     0.900000E-01   1.00800           0
     14986 MEMB     113      POPC     C2       CTL1     0.170000       12.0110           0
     14987 MEMB     113      POPC     HS       HAL1     0.900000E-01   1.00800           0
     14988 MEMB     113      POPC     O21      OSL     -0.490000       15.9994           0
     14989 MEMB     113      POPC     C21      CL       0.900000       12.0110           0
     14990 MEMB     113      POPC     O22      OBL     -0.630000       15.9994           0
     14991 MEMB     113      POPC     C22      CTL2    -0.220000       12.0110           0
     14992 MEMB     113      POPC     H2R      HAL2     0.900000E-01   1.00800           0
     14993 MEMB     113      POPC     H2S      HAL2     0.900000E-01   1.00800           0
     14994 MEMB     113      POPC     C3       CTL2     0.800000E-01   12.0110           0
     14995 MEMB     113      POPC     HX       HAL2     0.900000E-01   1.00800           0
     14996 MEMB     113      POPC     HY       HAL2     0.900000E-01   1.00800           0
     14997 MEMB     113      POPC     O31      OSL     -0.490000       15.9994           0
     14998 MEMB     113      POPC     C31      CL       0.900000       12.0110           0
     14999 MEMB     113      POPC     O32      OBL     -0.630000       15.9994           0
     15000 MEMB     113      POPC     C32      CTL2    -0.220000       12.0110           0
     15001 MEMB     113      POPC     H2X      HAL2     0.900000E-01   1.00800           0
     15002 MEMB     113      POPC     H2Y      HAL2     0.900000E-01   1.00800           0
     15003 MEMB     113      POPC     C23      CTL2    -0.180000       12.0110           0
     15004 MEMB     113      POPC     H3R      HAL2     0.900000E-01   1.00800           0
     15005 MEMB     113      POPC     H3S      HAL2     0.900000E-01   1.00800           0
     15006 MEMB     113      POPC     C24      CTL2    -0.180000       12.0110           0
     15007 MEMB     113      POPC     H4R      HAL2     0.900000E-01   1.00800           0
     15008 MEMB     113      POPC     H4S      HAL2     0.900000E-01   1.00800           0
     15009 MEMB     113      POPC     C25      CTL2    -0.180000       12.0110           0
     15010 MEMB     113      POPC     H5R      HAL2     0.900000E-01   1.00800           0
     15011 MEMB     113      POPC     H5S      HAL2     0.900000E-01   1.00800           0
     15012 MEMB     113      POPC     C26      CTL2    -0.180000       12.0110           0
     15013 MEMB     113      POPC     H6R      HAL2     0.900000E-01   1.00800           0
     15014 MEMB     113      POPC     H6S      HAL2     0.900000E-01   1.00800           0
     15015 MEMB     113      POPC     C27      CTL2    -0.180000       12.0110           0
     15016 MEMB     113      POPC     H7R      HAL2     0.900000E-01   1.00800           0
     15017 MEMB     113      POPC     H7S      HAL2     0.900000E-01   1.00800           0
     15018 MEMB     113      POPC     C28      CTL2    -0.180000       12.0110           0
     15019 MEMB     113      POPC     H8R      HAL2     0.900000E-01   1.00800           0
     15020 MEMB     113      POPC     H8S      HAL2     0.900000E-01   1.00800           0
     15021 MEMB     113      POPC     C29      CEL1    -0.150000       12.0110           0
     15022 MEMB     113      POPC     H91      HEL1     0.150000       1.00800           0
     15023 MEMB     113      POPC     C210     CEL1    -0.150000       12.0110           0
     15024 MEMB     113      POPC     H101     HEL1     0.150000       1.00800           0
     15025 MEMB     113      POPC     C211     CTL2    -0.180000       12.0110           0
     15026 MEMB     113      POPC     H11R     HAL2     0.900000E-01   1.00800           0
     15027 MEMB     113      POPC     H11S     HAL2     0.900000E-01   1.00800           0
     15028 MEMB     113      POPC     C212     CTL2    -0.180000       12.0110           0
     15029 MEMB     113      POPC     H12R     HAL2     0.900000E-01   1.00800           0
     15030 MEMB     113      POPC     H12S     HAL2     0.900000E-01   1.00800           0
     15031 MEMB     113      POPC     C213     CTL2    -0.180000       12.0110           0
     15032 MEMB     113      POPC     H13R     HAL2     0.900000E-01   1.00800           0
     15033 MEMB     113      POPC     H13S     HAL2     0.900000E-01   1.00800           0
     15034 MEMB     113      POPC     C214     CTL2    -0.180000       12.0110           0
     15035 MEMB     113      POPC     H14R     HAL2     0.900000E-01   1.00800           0
     15036 MEMB     113      POPC     H14S     HAL2     0.900000E-01   1.00800           0
     15037 MEMB     113      POPC     C215     CTL2    -0.180000       12.0110           0
     15038 MEMB     113      POPC     H15R     HAL2     0.900000E-01   1.00800           0
     15039 MEMB     113      POPC     H15S     HAL2     0.900000E-01   1.00800           0
     15040 MEMB     113      POPC     C216     CTL2    -0.180000       12.0110           0
     15041 MEMB     113      POPC     H16R     HAL2     0.900000E-01   1.00800           0
     15042 MEMB     113      POPC     H16S     HAL2     0.900000E-01   1.00800           0
     15043 MEMB     113      POPC     C217     CTL2    -0.180000       12.0110           0
     15044 MEMB     113      POPC     H17R     HAL2     0.900000E-01   1.00800           0
     15045 MEMB     113      POPC     H17S     HAL2     0.900000E-01   1.00800           0
     15046 MEMB     113      POPC     C218     CTL3    -0.270000       12.0110           0
     15047 MEMB     113      POPC     H18R     HAL3     0.900000E-01   1.00800           0
     15048 MEMB     113      POPC     H18S     HAL3     0.900000E-01   1.00800           0
     15049 MEMB     113      POPC     H18T     HAL3     0.900000E-01   1.00800           0
     15050 MEMB     113      POPC     C33      CTL2    -0.180000       12.0110           0
     15051 MEMB     113      POPC     H3X      HAL2     0.900000E-01   1.00800           0
     15052 MEMB     113      POPC     H3Y      HAL2     0.900000E-01   1.00800           0
     15053 MEMB     113      POPC     C34      CTL2    -0.180000       12.0110           0
     15054 MEMB     113      POPC     H4X      HAL2     0.900000E-01   1.00800           0
     15055 MEMB     113      POPC     H4Y      HAL2     0.900000E-01   1.00800           0
     15056 MEMB     113      POPC     C35      CTL2    -0.180000       12.0110           0
     15057 MEMB     113      POPC     H5X      HAL2     0.900000E-01   1.00800           0
     15058 MEMB     113      POPC     H5Y      HAL2     0.900000E-01   1.00800           0
     15059 MEMB     113      POPC     C36      CTL2    -0.180000       12.0110           0
     15060 MEMB     113      POPC     H6X      HAL2     0.900000E-01   1.00800           0
     15061 MEMB     113      POPC     H6Y      HAL2     0.900000E-01   1.00800           0
     15062 MEMB     113      POPC     C37      CTL2    -0.180000       12.0110           0
     15063 MEMB     113      POPC     H7X      HAL2     0.900000E-01   1.00800           0
     15064 MEMB     113      POPC     H7Y      HAL2     0.900000E-01   1.00800           0
     15065 MEMB     113      POPC     C38      CTL2    -0.180000       12.0110           0
     15066 MEMB     113      POPC     H8X      HAL2     0.900000E-01   1.00800           0
     15067 MEMB     113      POPC     H8Y      HAL2     0.900000E-01   1.00800           0
     15068 MEMB     113      POPC     C39      CTL2    -0.180000       12.0110           0
     15069 MEMB     113      POPC     H9X      HAL2     0.900000E-01   1.00800           0
     15070 MEMB     113      POPC     H9Y      HAL2     0.900000E-01   1.00800           0
     15071 MEMB     113      POPC     C310     CTL2    -0.180000       12.0110           0
     15072 MEMB     113      POPC     H10X     HAL2     0.900000E-01   1.00800           0
     15073 MEMB     113      POPC     H10Y     HAL2     0.900000E-01   1.00800           0
     15074 MEMB     113      POPC     C311     CTL2    -0.180000       12.0110           0
     15075 MEMB     113      POPC     H11X     HAL2     0.900000E-01   1.00800           0
     15076 MEMB     113      POPC     H11Y     HAL2     0.900000E-01   1.00800           0
     15077 MEMB     113      POPC     C312     CTL2    -0.180000       12.0110           0
     15078 MEMB     113      POPC     H12X     HAL2     0.900000E-01   1.00800           0
     15079 MEMB     113      POPC     H12Y     HAL2     0.900000E-01   1.00800           0
     15080 MEMB     113      POPC     C313     CTL2    -0.180000       12.0110           0
     15081 MEMB     113      POPC     H13X     HAL2     0.900000E-01   1.00800           0
     15082 MEMB     113      POPC     H13Y     HAL2     0.900000E-01   1.00800           0
     15083 MEMB     113      POPC     C314     CTL2    -0.180000       12.0110           0
     15084 MEMB     113      POPC     H14X     HAL2     0.900000E-01   1.00800           0
     15085 MEMB     113      POPC     H14Y     HAL2     0.900000E-01   1.00800           0
     15086 MEMB     113      POPC     C315     CTL2    -0.180000       12.0110           0
     15087 MEMB     113      POPC     H15X     HAL2     0.900000E-01   1.00800           0
     15088 MEMB     113      POPC     H15Y     HAL2     0.900000E-01   1.00800           0
     15089 MEMB     113      POPC     C316     CTL3    -0.270000       12.0110           0
     15090 MEMB     113      POPC     H16X     HAL3     0.900000E-01   1.00800           0
     15091 MEMB     113      POPC     H16Y     HAL3     0.900000E-01   1.00800           0
     15092 MEMB     113      POPC     H16Z     HAL3     0.900000E-01   1.00800           0
     15093 MEMB     114      POPC     N        NTL     -0.600000       14.0070           0
     15094 MEMB     114      POPC     C12      CTL2    -0.100000       12.0110           0
     15095 MEMB     114      POPC     H12A     HL       0.250000       1.00800           0
     15096 MEMB     114      POPC     H12B     HL       0.250000       1.00800           0
     15097 MEMB     114      POPC     C13      CTL5    -0.350000       12.0110           0
     15098 MEMB     114      POPC     H13A     HL       0.250000       1.00800           0
     15099 MEMB     114      POPC     H13B     HL       0.250000       1.00800           0
     15100 MEMB     114      POPC     H13C     HL       0.250000       1.00800           0
     15101 MEMB     114      POPC     C14      CTL5    -0.350000       12.0110           0
     15102 MEMB     114      POPC     H14A     HL       0.250000       1.00800           0
     15103 MEMB     114      POPC     H14B     HL       0.250000       1.00800           0
     15104 MEMB     114      POPC     H14C     HL       0.250000       1.00800           0
     15105 MEMB     114      POPC     C15      CTL5    -0.350000       12.0110           0
     15106 MEMB     114      POPC     H15A     HL       0.250000       1.00800           0
     15107 MEMB     114      POPC     H15B     HL       0.250000       1.00800           0
     15108 MEMB     114      POPC     H15C     HL       0.250000       1.00800           0
     15109 MEMB     114      POPC     C11      CTL2    -0.800000E-01   12.0110           0
     15110 MEMB     114      POPC     H11A     HAL2     0.900000E-01   1.00800           0
     15111 MEMB     114      POPC     H11B     HAL2     0.900000E-01   1.00800           0
     15112 MEMB     114      POPC     P        PL        1.50000       30.9740           0
     15113 MEMB     114      POPC     O13      O2L     -0.780000       15.9994           0
     15114 MEMB     114      POPC     O14      O2L     -0.780000       15.9994           0
     15115 MEMB     114      POPC     O12      OSLP    -0.570000       15.9994           0
     15116 MEMB     114      POPC     O11      OSLP    -0.570000       15.9994           0
     15117 MEMB     114      POPC     C1       CTL2    -0.800000E-01   12.0110           0
     15118 MEMB     114      POPC     HA       HAL2     0.900000E-01   1.00800           0
     15119 MEMB     114      POPC     HB       HAL2     0.900000E-01   1.00800           0
     15120 MEMB     114      POPC     C2       CTL1     0.170000       12.0110           0
     15121 MEMB     114      POPC     HS       HAL1     0.900000E-01   1.00800           0
     15122 MEMB     114      POPC     O21      OSL     -0.490000       15.9994           0
     15123 MEMB     114      POPC     C21      CL       0.900000       12.0110           0
     15124 MEMB     114      POPC     O22      OBL     -0.630000       15.9994           0
     15125 MEMB     114      POPC     C22      CTL2    -0.220000       12.0110           0
     15126 MEMB     114      POPC     H2R      HAL2     0.900000E-01   1.00800           0
     15127 MEMB     114      POPC     H2S      HAL2     0.900000E-01   1.00800           0
     15128 MEMB     114      POPC     C3       CTL2     0.800000E-01   12.0110           0
     15129 MEMB     114      POPC     HX       HAL2     0.900000E-01   1.00800           0
     15130 MEMB     114      POPC     HY       HAL2     0.900000E-01   1.00800           0
     15131 MEMB     114      POPC     O31      OSL     -0.490000       15.9994           0
     15132 MEMB     114      POPC     C31      CL       0.900000       12.0110           0
     15133 MEMB     114      POPC     O32      OBL     -0.630000       15.9994           0
     15134 MEMB     114      POPC     C32      CTL2    -0.220000       12.0110           0
     15135 MEMB     114      POPC     H2X      HAL2     0.900000E-01   1.00800           0
     15136 MEMB     114      POPC     H2Y      HAL2     0.900000E-01   1.00800           0
     15137 MEMB     114      POPC     C23      CTL2    -0.180000       12.0110           0
     15138 MEMB     114      POPC     H3R      HAL2     0.900000E-01   1.00800           0
     15139 MEMB     114      POPC     H3S      HAL2     0.900000E-01   1.00800           0
     15140 MEMB     114      POPC     C24      CTL2    -0.180000       12.0110           0
     15141 MEMB     114      POPC     H4R      HAL2     0.900000E-01   1.00800           0
     15142 MEMB     114      POPC     H4S      HAL2     0.900000E-01   1.00800           0
     15143 MEMB     114      POPC     C25      CTL2    -0.180000       12.0110           0
     15144 MEMB     114      POPC     H5R      HAL2     0.900000E-01   1.00800           0
     15145 MEMB     114      POPC     H5S      HAL2     0.900000E-01   1.00800           0
     15146 MEMB     114      POPC     C26      CTL2    -0.180000       12.0110           0
     15147 MEMB     114      POPC     H6R      HAL2     0.900000E-01   1.00800           0
     15148 MEMB     114      POPC     H6S      HAL2     0.900000E-01   1.00800           0
     15149 MEMB     114      POPC     C27      CTL2    -0.180000       12.0110           0
     15150 MEMB     114      POPC     H7R      HAL2     0.900000E-01   1.00800           0
     15151 MEMB     114      POPC     H7S      HAL2     0.900000E-01   1.00800           0
     15152 MEMB     114      POPC     C28      CTL2    -0.180000       12.0110           0
     15153 MEMB     114      POPC     H8R      HAL2     0.900000E-01   1.00800           0
     15154 MEMB     114      POPC     H8S      HAL2     0.900000E-01   1.00800           0
     15155 MEMB     114      POPC     C29      CEL1    -0.150000       12.0110           0
     15156 MEMB     114      POPC     H91      HEL1     0.150000       1.00800           0
     15157 MEMB     114      POPC     C210     CEL1    -0.150000       12.0110           0
     15158 MEMB     114      POPC     H101     HEL1     0.150000       1.00800           0
     15159 MEMB     114      POPC     C211     CTL2    -0.180000       12.0110           0
     15160 MEMB     114      POPC     H11R     HAL2     0.900000E-01   1.00800           0
     15161 MEMB     114      POPC     H11S     HAL2     0.900000E-01   1.00800           0
     15162 MEMB     114      POPC     C212     CTL2    -0.180000       12.0110           0
     15163 MEMB     114      POPC     H12R     HAL2     0.900000E-01   1.00800           0
     15164 MEMB     114      POPC     H12S     HAL2     0.900000E-01   1.00800           0
     15165 MEMB     114      POPC     C213     CTL2    -0.180000       12.0110           0
     15166 MEMB     114      POPC     H13R     HAL2     0.900000E-01   1.00800           0
     15167 MEMB     114      POPC     H13S     HAL2     0.900000E-01   1.00800           0
     15168 MEMB     114      POPC     C214     CTL2    -0.180000       12.0110           0
     15169 MEMB     114      POPC     H14R     HAL2     0.900000E-01   1.00800           0
     15170 MEMB     114      POPC     H14S     HAL2     0.900000E-01   1.00800           0
     15171 MEMB     114      POPC     C215     CTL2    -0.180000       12.0110           0
     15172 MEMB     114      POPC     H15R     HAL2     0.900000E-01   1.00800           0
     15173 MEMB     114      POPC     H15S     HAL2     0.900000E-01   1.00800           0
     15174 MEMB     114      POPC     C216     CTL2    -0.180000       12.0110           0
     15175 MEMB     114      POPC     H16R     HAL2     0.900000E-01   1.00800           0
     15176 MEMB     114      POPC     H16S     HAL2     0.900000E-01   1.00800           0
     15177 MEMB     114      POPC     C217     CTL2    -0.180000       12.0110           0
     15178 MEMB     114      POPC     H17R     HAL2     0.900000E-01   1.00800           0
     15179 MEMB     114      POPC     H17S     HAL2     0.900000E-01   1.00800           0
     15180 MEMB     114      POPC     C218     CTL3    -0.270000       12.0110           0
     15181 MEMB     114      POPC     H18R     HAL3     0.900000E-01   1.00800           0
     15182 MEMB     114      POPC     H18S     HAL3     0.900000E-01   1.00800           0
     15183 MEMB     114      POPC     H18T     HAL3     0.900000E-01   1.00800           0
     15184 MEMB     114      POPC     C33      CTL2    -0.180000       12.0110           0
     15185 MEMB     114      POPC     H3X      HAL2     0.900000E-01   1.00800           0
     15186 MEMB     114      POPC     H3Y      HAL2     0.900000E-01   1.00800           0
     15187 MEMB     114      POPC     C34      CTL2    -0.180000       12.0110           0
     15188 MEMB     114      POPC     H4X      HAL2     0.900000E-01   1.00800           0
     15189 MEMB     114      POPC     H4Y      HAL2     0.900000E-01   1.00800           0
     15190 MEMB     114      POPC     C35      CTL2    -0.180000       12.0110           0
     15191 MEMB     114      POPC     H5X      HAL2     0.900000E-01   1.00800           0
     15192 MEMB     114      POPC     H5Y      HAL2     0.900000E-01   1.00800           0
     15193 MEMB     114      POPC     C36      CTL2    -0.180000       12.0110           0
     15194 MEMB     114      POPC     H6X      HAL2     0.900000E-01   1.00800           0
     15195 MEMB     114      POPC     H6Y      HAL2     0.900000E-01   1.00800           0
     15196 MEMB     114      POPC     C37      CTL2    -0.180000       12.0110           0
     15197 MEMB     114      POPC     H7X      HAL2     0.900000E-01   1.00800           0
     15198 MEMB     114      POPC     H7Y      HAL2     0.900000E-01   1.00800           0
     15199 MEMB     114      POPC     C38      CTL2    -0.180000       12.0110           0
     15200 MEMB     114      POPC     H8X      HAL2     0.900000E-01   1.00800           0
     15201 MEMB     114      POPC     H8Y      HAL2     0.900000E-01   1.00800           0
     15202 MEMB     114      POPC     C39      CTL2    -0.180000       12.0110           0
     15203 MEMB     114      POPC     H9X      HAL2     0.900000E-01   1.00800           0
     15204 MEMB     114      POPC     H9Y      HAL2     0.900000E-01   1.00800           0
     15205 MEMB     114      POPC     C310     CTL2    -0.180000       12.0110           0
     15206 MEMB     114      POPC     H10X     HAL2     0.900000E-01   1.00800           0
     15207 MEMB     114      POPC     H10Y     HAL2     0.900000E-01   1.00800           0
     15208 MEMB     114      POPC     C311     CTL2    -0.180000       12.0110           0
     15209 MEMB     114      POPC     H11X     HAL2     0.900000E-01   1.00800           0
     15210 MEMB     114      POPC     H11Y     HAL2     0.900000E-01   1.00800           0
     15211 MEMB     114      POPC     C312     CTL2    -0.180000       12.0110           0
     15212 MEMB     114      POPC     H12X     HAL2     0.900000E-01   1.00800           0
     15213 MEMB     114      POPC     H12Y     HAL2     0.900000E-01   1.00800           0
     15214 MEMB     114      POPC     C313     CTL2    -0.180000       12.0110           0
     15215 MEMB     114      POPC     H13X     HAL2     0.900000E-01   1.00800           0
     15216 MEMB     114      POPC     H13Y     HAL2     0.900000E-01   1.00800           0
     15217 MEMB     114      POPC     C314     CTL2    -0.180000       12.0110           0
     15218 MEMB     114      POPC     H14X     HAL2     0.900000E-01   1.00800           0
     15219 MEMB     114      POPC     H14Y     HAL2     0.900000E-01   1.00800           0
     15220 MEMB     114      POPC     C315     CTL2    -0.180000       12.0110           0
     15221 MEMB     114      POPC     H15X     HAL2     0.900000E-01   1.00800           0
     15222 MEMB     114      POPC     H15Y     HAL2     0.900000E-01   1.00800           0
     15223 MEMB     114      POPC     C316     CTL3    -0.270000       12.0110           0
     15224 MEMB     114      POPC     H16X     HAL3     0.900000E-01   1.00800           0
     15225 MEMB     114      POPC     H16Y     HAL3     0.900000E-01   1.00800           0
     15226 MEMB     114      POPC     H16Z     HAL3     0.900000E-01   1.00800           0
     15227 MEMB     115      POPC     N        NTL     -0.600000       14.0070           0
     15228 MEMB     115      POPC     C12      CTL2    -0.100000       12.0110           0
     15229 MEMB     115      POPC     H12A     HL       0.250000       1.00800           0
     15230 MEMB     115      POPC     H12B     HL       0.250000       1.00800           0
     15231 MEMB     115      POPC     C13      CTL5    -0.350000       12.0110           0
     15232 MEMB     115      POPC     H13A     HL       0.250000       1.00800           0
     15233 MEMB     115      POPC     H13B     HL       0.250000       1.00800           0
     15234 MEMB     115      POPC     H13C     HL       0.250000       1.00800           0
     15235 MEMB     115      POPC     C14      CTL5    -0.350000       12.0110           0
     15236 MEMB     115      POPC     H14A     HL       0.250000       1.00800           0
     15237 MEMB     115      POPC     H14B     HL       0.250000       1.00800           0
     15238 MEMB     115      POPC     H14C     HL       0.250000       1.00800           0
     15239 MEMB     115      POPC     C15      CTL5    -0.350000       12.0110           0
     15240 MEMB     115      POPC     H15A     HL       0.250000       1.00800           0
     15241 MEMB     115      POPC     H15B     HL       0.250000       1.00800           0
     15242 MEMB     115      POPC     H15C     HL       0.250000       1.00800           0
     15243 MEMB     115      POPC     C11      CTL2    -0.800000E-01   12.0110           0
     15244 MEMB     115      POPC     H11A     HAL2     0.900000E-01   1.00800           0
     15245 MEMB     115      POPC     H11B     HAL2     0.900000E-01   1.00800           0
     15246 MEMB     115      POPC     P        PL        1.50000       30.9740           0
     15247 MEMB     115      POPC     O13      O2L     -0.780000       15.9994           0
     15248 MEMB     115      POPC     O14      O2L     -0.780000       15.9994           0
     15249 MEMB     115      POPC     O12      OSLP    -0.570000       15.9994           0
     15250 MEMB     115      POPC     O11      OSLP    -0.570000       15.9994           0
     15251 MEMB     115      POPC     C1       CTL2    -0.800000E-01   12.0110           0
     15252 MEMB     115      POPC     HA       HAL2     0.900000E-01   1.00800           0
     15253 MEMB     115      POPC     HB       HAL2     0.900000E-01   1.00800           0
     15254 MEMB     115      POPC     C2       CTL1     0.170000       12.0110           0
     15255 MEMB     115      POPC     HS       HAL1     0.900000E-01   1.00800           0
     15256 MEMB     115      POPC     O21      OSL     -0.490000       15.9994           0
     15257 MEMB     115      POPC     C21      CL       0.900000       12.0110           0
     15258 MEMB     115      POPC     O22      OBL     -0.630000       15.9994           0
     15259 MEMB     115      POPC     C22      CTL2    -0.220000       12.0110           0
     15260 MEMB     115      POPC     H2R      HAL2     0.900000E-01   1.00800           0
     15261 MEMB     115      POPC     H2S      HAL2     0.900000E-01   1.00800           0
     15262 MEMB     115      POPC     C3       CTL2     0.800000E-01   12.0110           0
     15263 MEMB     115      POPC     HX       HAL2     0.900000E-01   1.00800           0
     15264 MEMB     115      POPC     HY       HAL2     0.900000E-01   1.00800           0
     15265 MEMB     115      POPC     O31      OSL     -0.490000       15.9994           0
     15266 MEMB     115      POPC     C31      CL       0.900000       12.0110           0
     15267 MEMB     115      POPC     O32      OBL     -0.630000       15.9994           0
     15268 MEMB     115      POPC     C32      CTL2    -0.220000       12.0110           0
     15269 MEMB     115      POPC     H2X      HAL2     0.900000E-01   1.00800           0
     15270 MEMB     115      POPC     H2Y      HAL2     0.900000E-01   1.00800           0
     15271 MEMB     115      POPC     C23      CTL2    -0.180000       12.0110           0
     15272 MEMB     115      POPC     H3R      HAL2     0.900000E-01   1.00800           0
     15273 MEMB     115      POPC     H3S      HAL2     0.900000E-01   1.00800           0
     15274 MEMB     115      POPC     C24      CTL2    -0.180000       12.0110           0
     15275 MEMB     115      POPC     H4R      HAL2     0.900000E-01   1.00800           0
     15276 MEMB     115      POPC     H4S      HAL2     0.900000E-01   1.00800           0
     15277 MEMB     115      POPC     C25      CTL2    -0.180000       12.0110           0
     15278 MEMB     115      POPC     H5R      HAL2     0.900000E-01   1.00800           0
     15279 MEMB     115      POPC     H5S      HAL2     0.900000E-01   1.00800           0
     15280 MEMB     115      POPC     C26      CTL2    -0.180000       12.0110           0
     15281 MEMB     115      POPC     H6R      HAL2     0.900000E-01   1.00800           0
     15282 MEMB     115      POPC     H6S      HAL2     0.900000E-01   1.00800           0
     15283 MEMB     115      POPC     C27      CTL2    -0.180000       12.0110           0
     15284 MEMB     115      POPC     H7R      HAL2     0.900000E-01   1.00800           0
     15285 MEMB     115      POPC     H7S      HAL2     0.900000E-01   1.00800           0
     15286 MEMB     115      POPC     C28      CTL2    -0.180000       12.0110           0
     15287 MEMB     115      POPC     H8R      HAL2     0.900000E-01   1.00800           0
     15288 MEMB     115      POPC     H8S      HAL2     0.900000E-01   1.00800           0
     15289 MEMB     115      POPC     C29      CEL1    -0.150000       12.0110           0
     15290 MEMB     115      POPC     H91      HEL1     0.150000       1.00800           0
     15291 MEMB     115      POPC     C210     CEL1    -0.150000       12.0110           0
     15292 MEMB     115      POPC     H101     HEL1     0.150000       1.00800           0
     15293 MEMB     115      POPC     C211     CTL2    -0.180000       12.0110           0
     15294 MEMB     115      POPC     H11R     HAL2     0.900000E-01   1.00800           0
     15295 MEMB     115      POPC     H11S     HAL2     0.900000E-01   1.00800           0
     15296 MEMB     115      POPC     C212     CTL2    -0.180000       12.0110           0
     15297 MEMB     115      POPC     H12R     HAL2     0.900000E-01   1.00800           0
     15298 MEMB     115      POPC     H12S     HAL2     0.900000E-01   1.00800           0
     15299 MEMB     115      POPC     C213     CTL2    -0.180000       12.0110           0
     15300 MEMB     115      POPC     H13R     HAL2     0.900000E-01   1.00800           0
     15301 MEMB     115      POPC     H13S     HAL2     0.900000E-01   1.00800           0
     15302 MEMB     115      POPC     C214     CTL2    -0.180000       12.0110           0
     15303 MEMB     115      POPC     H14R     HAL2     0.900000E-01   1.00800           0
     15304 MEMB     115      POPC     H14S     HAL2     0.900000E-01   1.00800           0
     15305 MEMB     115      POPC     C215     CTL2    -0.180000       12.0110           0
     15306 MEMB     115      POPC     H15R     HAL2     0.900000E-01   1.00800           0
     15307 MEMB     115      POPC     H15S     HAL2     0.900000E-01   1.00800           0
     15308 MEMB     115      POPC     C216     CTL2    -0.180000       12.0110           0
     15309 MEMB     115      POPC     H16R     HAL2     0.900000E-01   1.00800           0
     15310 MEMB     115      POPC     H16S     HAL2     0.900000E-01   1.00800           0
     15311 MEMB     115      POPC     C217     CTL2    -0.180000       12.0110           0
     15312 MEMB     115      POPC     H17R     HAL2     0.900000E-01   1.00800           0
     15313 MEMB     115      POPC     H17S     HAL2     0.900000E-01   1.00800           0
     15314 MEMB     115      POPC     C218     CTL3    -0.270000       12.0110           0
     15315 MEMB     115      POPC     H18R     HAL3     0.900000E-01   1.00800           0
     15316 MEMB     115      POPC     H18S     HAL3     0.900000E-01   1.00800           0
     15317 MEMB     115      POPC     H18T     HAL3     0.900000E-01   1.00800           0
     15318 MEMB     115      POPC     C33      CTL2    -0.180000       12.0110           0
     15319 MEMB     115      POPC     H3X      HAL2     0.900000E-01   1.00800           0
     15320 MEMB     115      POPC     H3Y      HAL2     0.900000E-01   1.00800           0
     15321 MEMB     115      POPC     C34      CTL2    -0.180000       12.0110           0
     15322 MEMB     115      POPC     H4X      HAL2     0.900000E-01   1.00800           0
     15323 MEMB     115      POPC     H4Y      HAL2     0.900000E-01   1.00800           0
     15324 MEMB     115      POPC     C35      CTL2    -0.180000       12.0110           0
     15325 MEMB     115      POPC     H5X      HAL2     0.900000E-01   1.00800           0
     15326 MEMB     115      POPC     H5Y      HAL2     0.900000E-01   1.00800           0
     15327 MEMB     115      POPC     C36      CTL2    -0.180000       12.0110           0
     15328 MEMB     115      POPC     H6X      HAL2     0.900000E-01   1.00800           0
     15329 MEMB     115      POPC     H6Y      HAL2     0.900000E-01   1.00800           0
     15330 MEMB     115      POPC     C37      CTL2    -0.180000       12.0110           0
     15331 MEMB     115      POPC     H7X      HAL2     0.900000E-01   1.00800           0
     15332 MEMB     115      POPC     H7Y      HAL2     0.900000E-01   1.00800           0
     15333 MEMB     115      POPC     C38      CTL2    -0.180000       12.0110           0
     15334 MEMB     115      POPC     H8X      HAL2     0.900000E-01   1.00800           0
     15335 MEMB     115      POPC     H8Y      HAL2     0.900000E-01   1.00800           0
     15336 MEMB     115      POPC     C39      CTL2    -0.180000       12.0110           0
     15337 MEMB     115      POPC     H9X      HAL2     0.900000E-01   1.00800           0
     15338 MEMB     115      POPC     H9Y      HAL2     0.900000E-01   1.00800           0
     15339 MEMB     115      POPC     C310     CTL2    -0.180000       12.0110           0
     15340 MEMB     115      POPC     H10X     HAL2     0.900000E-01   1.00800           0
     15341 MEMB     115      POPC     H10Y     HAL2     0.900000E-01   1.00800           0
     15342 MEMB     115      POPC     C311     CTL2    -0.180000       12.0110           0
     15343 MEMB     115      POPC     H11X     HAL2     0.900000E-01   1.00800           0
     15344 MEMB     115      POPC     H11Y     HAL2     0.900000E-01   1.00800           0
     15345 MEMB     115      POPC     C312     CTL2    -0.180000       12.0110           0
     15346 MEMB     115      POPC     H12X     HAL2     0.900000E-01   1.00800           0
     15347 MEMB     115      POPC     H12Y     HAL2     0.900000E-01   1.00800           0
     15348 MEMB     115      POPC     C313     CTL2    -0.180000       12.0110           0
     15349 MEMB     115      POPC     H13X     HAL2     0.900000E-01   1.00800           0
     15350 MEMB     115      POPC     H13Y     HAL2     0.900000E-01   1.00800           0
     15351 MEMB     115      POPC     C314     CTL2    -0.180000       12.0110           0
     15352 MEMB     115      POPC     H14X     HAL2     0.900000E-01   1.00800           0
     15353 MEMB     115      POPC     H14Y     HAL2     0.900000E-01   1.00800           0
     15354 MEMB     115      POPC     C315     CTL2    -0.180000       12.0110           0
     15355 MEMB     115      POPC     H15X     HAL2     0.900000E-01   1.00800           0
     15356 MEMB     115      POPC     H15Y     HAL2     0.900000E-01   1.00800           0
     15357 MEMB     115      POPC     C316     CTL3    -0.270000       12.0110           0
     15358 MEMB     115      POPC     H16X     HAL3     0.900000E-01   1.00800           0
     15359 MEMB     115      POPC     H16Y     HAL3     0.900000E-01   1.00800           0
     15360 MEMB     115      POPC     H16Z     HAL3     0.900000E-01   1.00800           0
     15361 MEMB     116      POPS     N        NH3L    -0.300000       14.0070           0
     15362 MEMB     116      POPS     HN1      HCL      0.330000       1.00800           0
     15363 MEMB     116      POPS     HN2      HCL      0.330000       1.00800           0
     15364 MEMB     116      POPS     HN3      HCL      0.330000       1.00800           0
     15365 MEMB     116      POPS     C12      CTL1     0.210000       12.0110           0
     15366 MEMB     116      POPS     H12A     HBL      0.100000       1.00800           0
     15367 MEMB     116      POPS     C13      CCL      0.340000       12.0110           0
     15368 MEMB     116      POPS     O13A     OCL     -0.670000       15.9994           0
     15369 MEMB     116      POPS     O13B     OCL     -0.670000       15.9994           0
     15370 MEMB     116      POPS     C11      CTL2    -0.800000E-01   12.0110           0
     15371 MEMB     116      POPS     H11A     HAL2     0.900000E-01   1.00800           0
     15372 MEMB     116      POPS     H11B     HAL2     0.900000E-01   1.00800           0
     15373 MEMB     116      POPS     P        PL        1.50000       30.9740           0
     15374 MEMB     116      POPS     O13      O2L     -0.780000       15.9994           0
     15375 MEMB     116      POPS     O14      O2L     -0.780000       15.9994           0
     15376 MEMB     116      POPS     O12      OSLP    -0.570000       15.9994           0
     15377 MEMB     116      POPS     O11      OSLP    -0.570000       15.9994           0
     15378 MEMB     116      POPS     C1       CTL2    -0.800000E-01   12.0110           0
     15379 MEMB     116      POPS     HA       HAL2     0.900000E-01   1.00800           0
     15380 MEMB     116      POPS     HB       HAL2     0.900000E-01   1.00800           0
     15381 MEMB     116      POPS     C2       CTL1     0.170000       12.0110           0
     15382 MEMB     116      POPS     HS       HAL1     0.900000E-01   1.00800           0
     15383 MEMB     116      POPS     O21      OSL     -0.490000       15.9994           0
     15384 MEMB     116      POPS     C21      CL       0.900000       12.0110           0
     15385 MEMB     116      POPS     O22      OBL     -0.630000       15.9994           0
     15386 MEMB     116      POPS     C22      CTL2    -0.220000       12.0110           0
     15387 MEMB     116      POPS     H2R      HAL2     0.900000E-01   1.00800           0
     15388 MEMB     116      POPS     H2S      HAL2     0.900000E-01   1.00800           0
     15389 MEMB     116      POPS     C3       CTL2     0.800000E-01   12.0110           0
     15390 MEMB     116      POPS     HX       HAL2     0.900000E-01   1.00800           0
     15391 MEMB     116      POPS     HY       HAL2     0.900000E-01   1.00800           0
     15392 MEMB     116      POPS     O31      OSL     -0.490000       15.9994           0
     15393 MEMB     116      POPS     C31      CL       0.900000       12.0110           0
     15394 MEMB     116      POPS     O32      OBL     -0.630000       15.9994           0
     15395 MEMB     116      POPS     C32      CTL2    -0.220000       12.0110           0
     15396 MEMB     116      POPS     H2X      HAL2     0.900000E-01   1.00800           0
     15397 MEMB     116      POPS     H2Y      HAL2     0.900000E-01   1.00800           0
     15398 MEMB     116      POPS     C23      CTL2    -0.180000       12.0110           0
     15399 MEMB     116      POPS     H3R      HAL2     0.900000E-01   1.00800           0
     15400 MEMB     116      POPS     H3S      HAL2     0.900000E-01   1.00800           0
     15401 MEMB     116      POPS     C24      CTL2    -0.180000       12.0110           0
     15402 MEMB     116      POPS     H4R      HAL2     0.900000E-01   1.00800           0
     15403 MEMB     116      POPS     H4S      HAL2     0.900000E-01   1.00800           0
     15404 MEMB     116      POPS     C25      CTL2    -0.180000       12.0110           0
     15405 MEMB     116      POPS     H5R      HAL2     0.900000E-01   1.00800           0
     15406 MEMB     116      POPS     H5S      HAL2     0.900000E-01   1.00800           0
     15407 MEMB     116      POPS     C26      CTL2    -0.180000       12.0110           0
     15408 MEMB     116      POPS     H6R      HAL2     0.900000E-01   1.00800           0
     15409 MEMB     116      POPS     H6S      HAL2     0.900000E-01   1.00800           0
     15410 MEMB     116      POPS     C27      CTL2    -0.180000       12.0110           0
     15411 MEMB     116      POPS     H7R      HAL2     0.900000E-01   1.00800           0
     15412 MEMB     116      POPS     H7S      HAL2     0.900000E-01   1.00800           0
     15413 MEMB     116      POPS     C28      CTL2    -0.180000       12.0110           0
     15414 MEMB     116      POPS     H8R      HAL2     0.900000E-01   1.00800           0
     15415 MEMB     116      POPS     H8S      HAL2     0.900000E-01   1.00800           0
     15416 MEMB     116      POPS     C29      CEL1    -0.150000       12.0110           0
     15417 MEMB     116      POPS     H91      HEL1     0.150000       1.00800           0
     15418 MEMB     116      POPS     C210     CEL1    -0.150000       12.0110           0
     15419 MEMB     116      POPS     H101     HEL1     0.150000       1.00800           0
     15420 MEMB     116      POPS     C211     CTL2    -0.180000       12.0110           0
     15421 MEMB     116      POPS     H11R     HAL2     0.900000E-01   1.00800           0
     15422 MEMB     116      POPS     H11S     HAL2     0.900000E-01   1.00800           0
     15423 MEMB     116      POPS     C212     CTL2    -0.180000       12.0110           0
     15424 MEMB     116      POPS     H12R     HAL2     0.900000E-01   1.00800           0
     15425 MEMB     116      POPS     H12S     HAL2     0.900000E-01   1.00800           0
     15426 MEMB     116      POPS     C213     CTL2    -0.180000       12.0110           0
     15427 MEMB     116      POPS     H13R     HAL2     0.900000E-01   1.00800           0
     15428 MEMB     116      POPS     H13S     HAL2     0.900000E-01   1.00800           0
     15429 MEMB     116      POPS     C214     CTL2    -0.180000       12.0110           0
     15430 MEMB     116      POPS     H14R     HAL2     0.900000E-01   1.00800           0
     15431 MEMB     116      POPS     H14S     HAL2     0.900000E-01   1.00800           0
     15432 MEMB     116      POPS     C215     CTL2    -0.180000       12.0110           0
     15433 MEMB     116      POPS     H15R     HAL2     0.900000E-01   1.00800           0
     15434 MEMB     116      POPS     H15S     HAL2     0.900000E-01   1.00800           0
     15435 MEMB     116      POPS     C216     CTL2    -0.180000       12.0110           0
     15436 MEMB     116      POPS     H16R     HAL2     0.900000E-01   1.00800           0
     15437 MEMB     116      POPS     H16S     HAL2     0.900000E-01   1.00800           0
     15438 MEMB     116      POPS     C217     CTL2    -0.180000       12.0110           0
     15439 MEMB     116      POPS     H17R     HAL2     0.900000E-01   1.00800           0
     15440 MEMB     116      POPS     H17S     HAL2     0.900000E-01   1.00800           0
     15441 MEMB     116      POPS     C218     CTL3    -0.270000       12.0110           0
     15442 MEMB     116      POPS     H18R     HAL3     0.900000E-01   1.00800           0
     15443 MEMB     116      POPS     H18S     HAL3     0.900000E-01   1.00800           0
     15444 MEMB     116      POPS     H18T     HAL3     0.900000E-01   1.00800           0
     15445 MEMB     116      POPS     C33      CTL2    -0.180000       12.0110           0
     15446 MEMB     116      POPS     H3X      HAL2     0.900000E-01   1.00800           0
     15447 MEMB     116      POPS     H3Y      HAL2     0.900000E-01   1.00800           0
     15448 MEMB     116      POPS     C34      CTL2    -0.180000       12.0110           0
     15449 MEMB     116      POPS     H4X      HAL2     0.900000E-01   1.00800           0
     15450 MEMB     116      POPS     H4Y      HAL2     0.900000E-01   1.00800           0
     15451 MEMB     116      POPS     C35      CTL2    -0.180000       12.0110           0
     15452 MEMB     116      POPS     H5X      HAL2     0.900000E-01   1.00800           0
     15453 MEMB     116      POPS     H5Y      HAL2     0.900000E-01   1.00800           0
     15454 MEMB     116      POPS     C36      CTL2    -0.180000       12.0110           0
     15455 MEMB     116      POPS     H6X      HAL2     0.900000E-01   1.00800           0
     15456 MEMB     116      POPS     H6Y      HAL2     0.900000E-01   1.00800           0
     15457 MEMB     116      POPS     C37      CTL2    -0.180000       12.0110           0
     15458 MEMB     116      POPS     H7X      HAL2     0.900000E-01   1.00800           0
     15459 MEMB     116      POPS     H7Y      HAL2     0.900000E-01   1.00800           0
     15460 MEMB     116      POPS     C38      CTL2    -0.180000       12.0110           0
     15461 MEMB     116      POPS     H8X      HAL2     0.900000E-01   1.00800           0
     15462 MEMB     116      POPS     H8Y      HAL2     0.900000E-01   1.00800           0
     15463 MEMB     116      POPS     C39      CTL2    -0.180000       12.0110           0
     15464 MEMB     116      POPS     H9X      HAL2     0.900000E-01   1.00800           0
     15465 MEMB     116      POPS     H9Y      HAL2     0.900000E-01   1.00800           0
     15466 MEMB     116      POPS     C310     CTL2    -0.180000       12.0110           0
     15467 MEMB     116      POPS     H10X     HAL2     0.900000E-01   1.00800           0
     15468 MEMB     116      POPS     H10Y     HAL2     0.900000E-01   1.00800           0
     15469 MEMB     116      POPS     C311     CTL2    -0.180000       12.0110           0
     15470 MEMB     116      POPS     H11X     HAL2     0.900000E-01   1.00800           0
     15471 MEMB     116      POPS     H11Y     HAL2     0.900000E-01   1.00800           0
     15472 MEMB     116      POPS     C312     CTL2    -0.180000       12.0110           0
     15473 MEMB     116      POPS     H12X     HAL2     0.900000E-01   1.00800           0
     15474 MEMB     116      POPS     H12Y     HAL2     0.900000E-01   1.00800           0
     15475 MEMB     116      POPS     C313     CTL2    -0.180000       12.0110           0
     15476 MEMB     116      POPS     H13X     HAL2     0.900000E-01   1.00800           0
     15477 MEMB     116      POPS     H13Y     HAL2     0.900000E-01   1.00800           0
     15478 MEMB     116      POPS     C314     CTL2    -0.180000       12.0110           0
     15479 MEMB     116      POPS     H14X     HAL2     0.900000E-01   1.00800           0
     15480 MEMB     116      POPS     H14Y     HAL2     0.900000E-01   1.00800           0
     15481 MEMB     116      POPS     C315     CTL2    -0.180000       12.0110           0
     15482 MEMB     116      POPS     H15X     HAL2     0.900000E-01   1.00800           0
     15483 MEMB     116      POPS     H15Y     HAL2     0.900000E-01   1.00800           0
     15484 MEMB     116      POPS     C316     CTL3    -0.270000       12.0110           0
     15485 MEMB     116      POPS     H16X     HAL3     0.900000E-01   1.00800           0
     15486 MEMB     116      POPS     H16Y     HAL3     0.900000E-01   1.00800           0
     15487 MEMB     116      POPS     H16Z     HAL3     0.900000E-01   1.00800           0
     15488 MEMB     117      POPS     N        NH3L    -0.300000       14.0070           0
     15489 MEMB     117      POPS     HN1      HCL      0.330000       1.00800           0
     15490 MEMB     117      POPS     HN2      HCL      0.330000       1.00800           0
     15491 MEMB     117      POPS     HN3      HCL      0.330000       1.00800           0
     15492 MEMB     117      POPS     C12      CTL1     0.210000       12.0110           0
     15493 MEMB     117      POPS     H12A     HBL      0.100000       1.00800           0
     15494 MEMB     117      POPS     C13      CCL      0.340000       12.0110           0
     15495 MEMB     117      POPS     O13A     OCL     -0.670000       15.9994           0
     15496 MEMB     117      POPS     O13B     OCL     -0.670000       15.9994           0
     15497 MEMB     117      POPS     C11      CTL2    -0.800000E-01   12.0110           0
     15498 MEMB     117      POPS     H11A     HAL2     0.900000E-01   1.00800           0
     15499 MEMB     117      POPS     H11B     HAL2     0.900000E-01   1.00800           0
     15500 MEMB     117      POPS     P        PL        1.50000       30.9740           0
     15501 MEMB     117      POPS     O13      O2L     -0.780000       15.9994           0
     15502 MEMB     117      POPS     O14      O2L     -0.780000       15.9994           0
     15503 MEMB     117      POPS     O12      OSLP    -0.570000       15.9994           0
     15504 MEMB     117      POPS     O11      OSLP    -0.570000       15.9994           0
     15505 MEMB     117      POPS     C1       CTL2    -0.800000E-01   12.0110           0
     15506 MEMB     117      POPS     HA       HAL2     0.900000E-01   1.00800           0
     15507 MEMB     117      POPS     HB       HAL2     0.900000E-01   1.00800           0
     15508 MEMB     117      POPS     C2       CTL1     0.170000       12.0110           0
     15509 MEMB     117      POPS     HS       HAL1     0.900000E-01   1.00800           0
     15510 MEMB     117      POPS     O21      OSL     -0.490000       15.9994           0
     15511 MEMB     117      POPS     C21      CL       0.900000       12.0110           0
     15512 MEMB     117      POPS     O22      OBL     -0.630000       15.9994           0
     15513 MEMB     117      POPS     C22      CTL2    -0.220000       12.0110           0
     15514 MEMB     117      POPS     H2R      HAL2     0.900000E-01   1.00800           0
     15515 MEMB     117      POPS     H2S      HAL2     0.900000E-01   1.00800           0
     15516 MEMB     117      POPS     C3       CTL2     0.800000E-01   12.0110           0
     15517 MEMB     117      POPS     HX       HAL2     0.900000E-01   1.00800           0
     15518 MEMB     117      POPS     HY       HAL2     0.900000E-01   1.00800           0
     15519 MEMB     117      POPS     O31      OSL     -0.490000       15.9994           0
     15520 MEMB     117      POPS     C31      CL       0.900000       12.0110           0
     15521 MEMB     117      POPS     O32      OBL     -0.630000       15.9994           0
     15522 MEMB     117      POPS     C32      CTL2    -0.220000       12.0110           0
     15523 MEMB     117      POPS     H2X      HAL2     0.900000E-01   1.00800           0
     15524 MEMB     117      POPS     H2Y      HAL2     0.900000E-01   1.00800           0
     15525 MEMB     117      POPS     C23      CTL2    -0.180000       12.0110           0
     15526 MEMB     117      POPS     H3R      HAL2     0.900000E-01   1.00800           0
     15527 MEMB     117      POPS     H3S      HAL2     0.900000E-01   1.00800           0
     15528 MEMB     117      POPS     C24      CTL2    -0.180000       12.0110           0
     15529 MEMB     117      POPS     H4R      HAL2     0.900000E-01   1.00800           0
     15530 MEMB     117      POPS     H4S      HAL2     0.900000E-01   1.00800           0
     15531 MEMB     117      POPS     C25      CTL2    -0.180000       12.0110           0
     15532 MEMB     117      POPS     H5R      HAL2     0.900000E-01   1.00800           0
     15533 MEMB     117      POPS     H5S      HAL2     0.900000E-01   1.00800           0
     15534 MEMB     117      POPS     C26      CTL2    -0.180000       12.0110           0
     15535 MEMB     117      POPS     H6R      HAL2     0.900000E-01   1.00800           0
     15536 MEMB     117      POPS     H6S      HAL2     0.900000E-01   1.00800           0
     15537 MEMB     117      POPS     C27      CTL2    -0.180000       12.0110           0
     15538 MEMB     117      POPS     H7R      HAL2     0.900000E-01   1.00800           0
     15539 MEMB     117      POPS     H7S      HAL2     0.900000E-01   1.00800           0
     15540 MEMB     117      POPS     C28      CTL2    -0.180000       12.0110           0
     15541 MEMB     117      POPS     H8R      HAL2     0.900000E-01   1.00800           0
     15542 MEMB     117      POPS     H8S      HAL2     0.900000E-01   1.00800           0
     15543 MEMB     117      POPS     C29      CEL1    -0.150000       12.0110           0
     15544 MEMB     117      POPS     H91      HEL1     0.150000       1.00800           0
     15545 MEMB     117      POPS     C210     CEL1    -0.150000       12.0110           0
     15546 MEMB     117      POPS     H101     HEL1     0.150000       1.00800           0
     15547 MEMB     117      POPS     C211     CTL2    -0.180000       12.0110           0
     15548 MEMB     117      POPS     H11R     HAL2     0.900000E-01   1.00800           0
     15549 MEMB     117      POPS     H11S     HAL2     0.900000E-01   1.00800           0
     15550 MEMB     117      POPS     C212     CTL2    -0.180000       12.0110           0
     15551 MEMB     117      POPS     H12R     HAL2     0.900000E-01   1.00800           0
     15552 MEMB     117      POPS     H12S     HAL2     0.900000E-01   1.00800           0
     15553 MEMB     117      POPS     C213     CTL2    -0.180000       12.0110           0
     15554 MEMB     117      POPS     H13R     HAL2     0.900000E-01   1.00800           0
     15555 MEMB     117      POPS     H13S     HAL2     0.900000E-01   1.00800           0
     15556 MEMB     117      POPS     C214     CTL2    -0.180000       12.0110           0
     15557 MEMB     117      POPS     H14R     HAL2     0.900000E-01   1.00800           0
     15558 MEMB     117      POPS     H14S     HAL2     0.900000E-01   1.00800           0
     15559 MEMB     117      POPS     C215     CTL2    -0.180000       12.0110           0
     15560 MEMB     117      POPS     H15R     HAL2     0.900000E-01   1.00800           0
     15561 MEMB     117      POPS     H15S     HAL2     0.900000E-01   1.00800           0
     15562 MEMB     117      POPS     C216     CTL2    -0.180000       12.0110           0
     15563 MEMB     117      POPS     H16R     HAL2     0.900000E-01   1.00800           0
     15564 MEMB     117      POPS     H16S     HAL2     0.900000E-01   1.00800           0
     15565 MEMB     117      POPS     C217     CTL2    -0.180000       12.0110           0
     15566 MEMB     117      POPS     H17R     HAL2     0.900000E-01   1.00800           0
     15567 MEMB     117      POPS     H17S     HAL2     0.900000E-01   1.00800           0
     15568 MEMB     117      POPS     C218     CTL3    -0.270000       12.0110           0
     15569 MEMB     117      POPS     H18R     HAL3     0.900000E-01   1.00800           0
     15570 MEMB     117      POPS     H18S     HAL3     0.900000E-01   1.00800           0
     15571 MEMB     117      POPS     H18T     HAL3     0.900000E-01   1.00800           0
     15572 MEMB     117      POPS     C33      CTL2    -0.180000       12.0110           0
     15573 MEMB     117      POPS     H3X      HAL2     0.900000E-01   1.00800           0
     15574 MEMB     117      POPS     H3Y      HAL2     0.900000E-01   1.00800           0
     15575 MEMB     117      POPS     C34      CTL2    -0.180000       12.0110           0
     15576 MEMB     117      POPS     H4X      HAL2     0.900000E-01   1.00800           0
     15577 MEMB     117      POPS     H4Y      HAL2     0.900000E-01   1.00800           0
     15578 MEMB     117      POPS     C35      CTL2    -0.180000       12.0110           0
     15579 MEMB     117      POPS     H5X      HAL2     0.900000E-01   1.00800           0
     15580 MEMB     117      POPS     H5Y      HAL2     0.900000E-01   1.00800           0
     15581 MEMB     117      POPS     C36      CTL2    -0.180000       12.0110           0
     15582 MEMB     117      POPS     H6X      HAL2     0.900000E-01   1.00800           0
     15583 MEMB     117      POPS     H6Y      HAL2     0.900000E-01   1.00800           0
     15584 MEMB     117      POPS     C37      CTL2    -0.180000       12.0110           0
     15585 MEMB     117      POPS     H7X      HAL2     0.900000E-01   1.00800           0
     15586 MEMB     117      POPS     H7Y      HAL2     0.900000E-01   1.00800           0
     15587 MEMB     117      POPS     C38      CTL2    -0.180000       12.0110           0
     15588 MEMB     117      POPS     H8X      HAL2     0.900000E-01   1.00800           0
     15589 MEMB     117      POPS     H8Y      HAL2     0.900000E-01   1.00800           0
     15590 MEMB     117      POPS     C39      CTL2    -0.180000       12.0110           0
     15591 MEMB     117      POPS     H9X      HAL2     0.900000E-01   1.00800           0
     15592 MEMB     117      POPS     H9Y      HAL2     0.900000E-01   1.00800           0
     15593 MEMB     117      POPS     C310     CTL2    -0.180000       12.0110           0
     15594 MEMB     117      POPS     H10X     HAL2     0.900000E-01   1.00800           0
     15595 MEMB     117      POPS     H10Y     HAL2     0.900000E-01   1.00800           0
     15596 MEMB     117      POPS     C311     CTL2    -0.180000       12.0110           0
     15597 MEMB     117      POPS     H11X     HAL2     0.900000E-01   1.00800           0
     15598 MEMB     117      POPS     H11Y     HAL2     0.900000E-01   1.00800           0
     15599 MEMB     117      POPS     C312     CTL2    -0.180000       12.0110           0
     15600 MEMB     117      POPS     H12X     HAL2     0.900000E-01   1.00800           0
     15601 MEMB     117      POPS     H12Y     HAL2     0.900000E-01   1.00800           0
     15602 MEMB     117      POPS     C313     CTL2    -0.180000       12.0110           0
     15603 MEMB     117      POPS     H13X     HAL2     0.900000E-01   1.00800           0
     15604 MEMB     117      POPS     H13Y     HAL2     0.900000E-01   1.00800           0
     15605 MEMB     117      POPS     C314     CTL2    -0.180000       12.0110           0
     15606 MEMB     117      POPS     H14X     HAL2     0.900000E-01   1.00800           0
     15607 MEMB     117      POPS     H14Y     HAL2     0.900000E-01   1.00800           0
     15608 MEMB     117      POPS     C315     CTL2    -0.180000       12.0110           0
     15609 MEMB     117      POPS     H15X     HAL2     0.900000E-01   1.00800           0
     15610 MEMB     117      POPS     H15Y     HAL2     0.900000E-01   1.00800           0
     15611 MEMB     117      POPS     C316     CTL3    -0.270000       12.0110           0
     15612 MEMB     117      POPS     H16X     HAL3     0.900000E-01   1.00800           0
     15613 MEMB     117      POPS     H16Y     HAL3     0.900000E-01   1.00800           0
     15614 MEMB     117      POPS     H16Z     HAL3     0.900000E-01   1.00800           0
     15615 MEMB     118      POPC     N        NTL     -0.600000       14.0070           0
     15616 MEMB     118      POPC     C12      CTL2    -0.100000       12.0110           0
     15617 MEMB     118      POPC     H12A     HL       0.250000       1.00800           0
     15618 MEMB     118      POPC     H12B     HL       0.250000       1.00800           0
     15619 MEMB     118      POPC     C13      CTL5    -0.350000       12.0110           0
     15620 MEMB     118      POPC     H13A     HL       0.250000       1.00800           0
     15621 MEMB     118      POPC     H13B     HL       0.250000       1.00800           0
     15622 MEMB     118      POPC     H13C     HL       0.250000       1.00800           0
     15623 MEMB     118      POPC     C14      CTL5    -0.350000       12.0110           0
     15624 MEMB     118      POPC     H14A     HL       0.250000       1.00800           0
     15625 MEMB     118      POPC     H14B     HL       0.250000       1.00800           0
     15626 MEMB     118      POPC     H14C     HL       0.250000       1.00800           0
     15627 MEMB     118      POPC     C15      CTL5    -0.350000       12.0110           0
     15628 MEMB     118      POPC     H15A     HL       0.250000       1.00800           0
     15629 MEMB     118      POPC     H15B     HL       0.250000       1.00800           0
     15630 MEMB     118      POPC     H15C     HL       0.250000       1.00800           0
     15631 MEMB     118      POPC     C11      CTL2    -0.800000E-01   12.0110           0
     15632 MEMB     118      POPC     H11A     HAL2     0.900000E-01   1.00800           0
     15633 MEMB     118      POPC     H11B     HAL2     0.900000E-01   1.00800           0
     15634 MEMB     118      POPC     P        PL        1.50000       30.9740           0
     15635 MEMB     118      POPC     O13      O2L     -0.780000       15.9994           0
     15636 MEMB     118      POPC     O14      O2L     -0.780000       15.9994           0
     15637 MEMB     118      POPC     O12      OSLP    -0.570000       15.9994           0
     15638 MEMB     118      POPC     O11      OSLP    -0.570000       15.9994           0
     15639 MEMB     118      POPC     C1       CTL2    -0.800000E-01   12.0110           0
     15640 MEMB     118      POPC     HA       HAL2     0.900000E-01   1.00800           0
     15641 MEMB     118      POPC     HB       HAL2     0.900000E-01   1.00800           0
     15642 MEMB     118      POPC     C2       CTL1     0.170000       12.0110           0
     15643 MEMB     118      POPC     HS       HAL1     0.900000E-01   1.00800           0
     15644 MEMB     118      POPC     O21      OSL     -0.490000       15.9994           0
     15645 MEMB     118      POPC     C21      CL       0.900000       12.0110           0
     15646 MEMB     118      POPC     O22      OBL     -0.630000       15.9994           0
     15647 MEMB     118      POPC     C22      CTL2    -0.220000       12.0110           0
     15648 MEMB     118      POPC     H2R      HAL2     0.900000E-01   1.00800           0
     15649 MEMB     118      POPC     H2S      HAL2     0.900000E-01   1.00800           0
     15650 MEMB     118      POPC     C3       CTL2     0.800000E-01   12.0110           0
     15651 MEMB     118      POPC     HX       HAL2     0.900000E-01   1.00800           0
     15652 MEMB     118      POPC     HY       HAL2     0.900000E-01   1.00800           0
     15653 MEMB     118      POPC     O31      OSL     -0.490000       15.9994           0
     15654 MEMB     118      POPC     C31      CL       0.900000       12.0110           0
     15655 MEMB     118      POPC     O32      OBL     -0.630000       15.9994           0
     15656 MEMB     118      POPC     C32      CTL2    -0.220000       12.0110           0
     15657 MEMB     118      POPC     H2X      HAL2     0.900000E-01   1.00800           0
     15658 MEMB     118      POPC     H2Y      HAL2     0.900000E-01   1.00800           0
     15659 MEMB     118      POPC     C23      CTL2    -0.180000       12.0110           0
     15660 MEMB     118      POPC     H3R      HAL2     0.900000E-01   1.00800           0
     15661 MEMB     118      POPC     H3S      HAL2     0.900000E-01   1.00800           0
     15662 MEMB     118      POPC     C24      CTL2    -0.180000       12.0110           0
     15663 MEMB     118      POPC     H4R      HAL2     0.900000E-01   1.00800           0
     15664 MEMB     118      POPC     H4S      HAL2     0.900000E-01   1.00800           0
     15665 MEMB     118      POPC     C25      CTL2    -0.180000       12.0110           0
     15666 MEMB     118      POPC     H5R      HAL2     0.900000E-01   1.00800           0
     15667 MEMB     118      POPC     H5S      HAL2     0.900000E-01   1.00800           0
     15668 MEMB     118      POPC     C26      CTL2    -0.180000       12.0110           0
     15669 MEMB     118      POPC     H6R      HAL2     0.900000E-01   1.00800           0
     15670 MEMB     118      POPC     H6S      HAL2     0.900000E-01   1.00800           0
     15671 MEMB     118      POPC     C27      CTL2    -0.180000       12.0110           0
     15672 MEMB     118      POPC     H7R      HAL2     0.900000E-01   1.00800           0
     15673 MEMB     118      POPC     H7S      HAL2     0.900000E-01   1.00800           0
     15674 MEMB     118      POPC     C28      CTL2    -0.180000       12.0110           0
     15675 MEMB     118      POPC     H8R      HAL2     0.900000E-01   1.00800           0
     15676 MEMB     118      POPC     H8S      HAL2     0.900000E-01   1.00800           0
     15677 MEMB     118      POPC     C29      CEL1    -0.150000       12.0110           0
     15678 MEMB     118      POPC     H91      HEL1     0.150000       1.00800           0
     15679 MEMB     118      POPC     C210     CEL1    -0.150000       12.0110           0
     15680 MEMB     118      POPC     H101     HEL1     0.150000       1.00800           0
     15681 MEMB     118      POPC     C211     CTL2    -0.180000       12.0110           0
     15682 MEMB     118      POPC     H11R     HAL2     0.900000E-01   1.00800           0
     15683 MEMB     118      POPC     H11S     HAL2     0.900000E-01   1.00800           0
     15684 MEMB     118      POPC     C212     CTL2    -0.180000       12.0110           0
     15685 MEMB     118      POPC     H12R     HAL2     0.900000E-01   1.00800           0
     15686 MEMB     118      POPC     H12S     HAL2     0.900000E-01   1.00800           0
     15687 MEMB     118      POPC     C213     CTL2    -0.180000       12.0110           0
     15688 MEMB     118      POPC     H13R     HAL2     0.900000E-01   1.00800           0
     15689 MEMB     118      POPC     H13S     HAL2     0.900000E-01   1.00800           0
     15690 MEMB     118      POPC     C214     CTL2    -0.180000       12.0110           0
     15691 MEMB     118      POPC     H14R     HAL2     0.900000E-01   1.00800           0
     15692 MEMB     118      POPC     H14S     HAL2     0.900000E-01   1.00800           0
     15693 MEMB     118      POPC     C215     CTL2    -0.180000       12.0110           0
     15694 MEMB     118      POPC     H15R     HAL2     0.900000E-01   1.00800           0
     15695 MEMB     118      POPC     H15S     HAL2     0.900000E-01   1.00800           0
     15696 MEMB     118      POPC     C216     CTL2    -0.180000       12.0110           0
     15697 MEMB     118      POPC     H16R     HAL2     0.900000E-01   1.00800           0
     15698 MEMB     118      POPC     H16S     HAL2     0.900000E-01   1.00800           0
     15699 MEMB     118      POPC     C217     CTL2    -0.180000       12.0110           0
     15700 MEMB     118      POPC     H17R     HAL2     0.900000E-01   1.00800           0
     15701 MEMB     118      POPC     H17S     HAL2     0.900000E-01   1.00800           0
     15702 MEMB     118      POPC     C218     CTL3    -0.270000       12.0110           0
     15703 MEMB     118      POPC     H18R     HAL3     0.900000E-01   1.00800           0
     15704 MEMB     118      POPC     H18S     HAL3     0.900000E-01   1.00800           0
     15705 MEMB     118      POPC     H18T     HAL3     0.900000E-01   1.00800           0
     15706 MEMB     118      POPC     C33      CTL2    -0.180000       12.0110           0
     15707 MEMB     118      POPC     H3X      HAL2     0.900000E-01   1.00800           0
     15708 MEMB     118      POPC     H3Y      HAL2     0.900000E-01   1.00800           0
     15709 MEMB     118      POPC     C34      CTL2    -0.180000       12.0110           0
     15710 MEMB     118      POPC     H4X      HAL2     0.900000E-01   1.00800           0
     15711 MEMB     118      POPC     H4Y      HAL2     0.900000E-01   1.00800           0
     15712 MEMB     118      POPC     C35      CTL2    -0.180000       12.0110           0
     15713 MEMB     118      POPC     H5X      HAL2     0.900000E-01   1.00800           0
     15714 MEMB     118      POPC     H5Y      HAL2     0.900000E-01   1.00800           0
     15715 MEMB     118      POPC     C36      CTL2    -0.180000       12.0110           0
     15716 MEMB     118      POPC     H6X      HAL2     0.900000E-01   1.00800           0
     15717 MEMB     118      POPC     H6Y      HAL2     0.900000E-01   1.00800           0
     15718 MEMB     118      POPC     C37      CTL2    -0.180000       12.0110           0
     15719 MEMB     118      POPC     H7X      HAL2     0.900000E-01   1.00800           0
     15720 MEMB     118      POPC     H7Y      HAL2     0.900000E-01   1.00800           0
     15721 MEMB     118      POPC     C38      CTL2    -0.180000       12.0110           0
     15722 MEMB     118      POPC     H8X      HAL2     0.900000E-01   1.00800           0
     15723 MEMB     118      POPC     H8Y      HAL2     0.900000E-01   1.00800           0
     15724 MEMB     118      POPC     C39      CTL2    -0.180000       12.0110           0
     15725 MEMB     118      POPC     H9X      HAL2     0.900000E-01   1.00800           0
     15726 MEMB     118      POPC     H9Y      HAL2     0.900000E-01   1.00800           0
     15727 MEMB     118      POPC     C310     CTL2    -0.180000       12.0110           0
     15728 MEMB     118      POPC     H10X     HAL2     0.900000E-01   1.00800           0
     15729 MEMB     118      POPC     H10Y     HAL2     0.900000E-01   1.00800           0
     15730 MEMB     118      POPC     C311     CTL2    -0.180000       12.0110           0
     15731 MEMB     118      POPC     H11X     HAL2     0.900000E-01   1.00800           0
     15732 MEMB     118      POPC     H11Y     HAL2     0.900000E-01   1.00800           0
     15733 MEMB     118      POPC     C312     CTL2    -0.180000       12.0110           0
     15734 MEMB     118      POPC     H12X     HAL2     0.900000E-01   1.00800           0
     15735 MEMB     118      POPC     H12Y     HAL2     0.900000E-01   1.00800           0
     15736 MEMB     118      POPC     C313     CTL2    -0.180000       12.0110           0
     15737 MEMB     118      POPC     H13X     HAL2     0.900000E-01   1.00800           0
     15738 MEMB     118      POPC     H13Y     HAL2     0.900000E-01   1.00800           0
     15739 MEMB     118      POPC     C314     CTL2    -0.180000       12.0110           0
     15740 MEMB     118      POPC     H14X     HAL2     0.900000E-01   1.00800           0
     15741 MEMB     118      POPC     H14Y     HAL2     0.900000E-01   1.00800           0
     15742 MEMB     118      POPC     C315     CTL2    -0.180000       12.0110           0
     15743 MEMB     118      POPC     H15X     HAL2     0.900000E-01   1.00800           0
     15744 MEMB     118      POPC     H15Y     HAL2     0.900000E-01   1.00800           0
     15745 MEMB     118      POPC     C316     CTL3    -0.270000       12.0110           0
     15746 MEMB     118      POPC     H16X     HAL3     0.900000E-01   1.00800           0
     15747 MEMB     118      POPC     H16Y     HAL3     0.900000E-01   1.00800           0
     15748 MEMB     118      POPC     H16Z     HAL3     0.900000E-01   1.00800           0
     15749 MEMB     119      POPC     N        NTL     -0.600000       14.0070           0
     15750 MEMB     119      POPC     C12      CTL2    -0.100000       12.0110           0
     15751 MEMB     119      POPC     H12A     HL       0.250000       1.00800           0
     15752 MEMB     119      POPC     H12B     HL       0.250000       1.00800           0
     15753 MEMB     119      POPC     C13      CTL5    -0.350000       12.0110           0
     15754 MEMB     119      POPC     H13A     HL       0.250000       1.00800           0
     15755 MEMB     119      POPC     H13B     HL       0.250000       1.00800           0
     15756 MEMB     119      POPC     H13C     HL       0.250000       1.00800           0
     15757 MEMB     119      POPC     C14      CTL5    -0.350000       12.0110           0
     15758 MEMB     119      POPC     H14A     HL       0.250000       1.00800           0
     15759 MEMB     119      POPC     H14B     HL       0.250000       1.00800           0
     15760 MEMB     119      POPC     H14C     HL       0.250000       1.00800           0
     15761 MEMB     119      POPC     C15      CTL5    -0.350000       12.0110           0
     15762 MEMB     119      POPC     H15A     HL       0.250000       1.00800           0
     15763 MEMB     119      POPC     H15B     HL       0.250000       1.00800           0
     15764 MEMB     119      POPC     H15C     HL       0.250000       1.00800           0
     15765 MEMB     119      POPC     C11      CTL2    -0.800000E-01   12.0110           0
     15766 MEMB     119      POPC     H11A     HAL2     0.900000E-01   1.00800           0
     15767 MEMB     119      POPC     H11B     HAL2     0.900000E-01   1.00800           0
     15768 MEMB     119      POPC     P        PL        1.50000       30.9740           0
     15769 MEMB     119      POPC     O13      O2L     -0.780000       15.9994           0
     15770 MEMB     119      POPC     O14      O2L     -0.780000       15.9994           0
     15771 MEMB     119      POPC     O12      OSLP    -0.570000       15.9994           0
     15772 MEMB     119      POPC     O11      OSLP    -0.570000       15.9994           0
     15773 MEMB     119      POPC     C1       CTL2    -0.800000E-01   12.0110           0
     15774 MEMB     119      POPC     HA       HAL2     0.900000E-01   1.00800           0
     15775 MEMB     119      POPC     HB       HAL2     0.900000E-01   1.00800           0
     15776 MEMB     119      POPC     C2       CTL1     0.170000       12.0110           0
     15777 MEMB     119      POPC     HS       HAL1     0.900000E-01   1.00800           0
     15778 MEMB     119      POPC     O21      OSL     -0.490000       15.9994           0
     15779 MEMB     119      POPC     C21      CL       0.900000       12.0110           0
     15780 MEMB     119      POPC     O22      OBL     -0.630000       15.9994           0
     15781 MEMB     119      POPC     C22      CTL2    -0.220000       12.0110           0
     15782 MEMB     119      POPC     H2R      HAL2     0.900000E-01   1.00800           0
     15783 MEMB     119      POPC     H2S      HAL2     0.900000E-01   1.00800           0
     15784 MEMB     119      POPC     C3       CTL2     0.800000E-01   12.0110           0
     15785 MEMB     119      POPC     HX       HAL2     0.900000E-01   1.00800           0
     15786 MEMB     119      POPC     HY       HAL2     0.900000E-01   1.00800           0
     15787 MEMB     119      POPC     O31      OSL     -0.490000       15.9994           0
     15788 MEMB     119      POPC     C31      CL       0.900000       12.0110           0
     15789 MEMB     119      POPC     O32      OBL     -0.630000       15.9994           0
     15790 MEMB     119      POPC     C32      CTL2    -0.220000       12.0110           0
     15791 MEMB     119      POPC     H2X      HAL2     0.900000E-01   1.00800           0
     15792 MEMB     119      POPC     H2Y      HAL2     0.900000E-01   1.00800           0
     15793 MEMB     119      POPC     C23      CTL2    -0.180000       12.0110           0
     15794 MEMB     119      POPC     H3R      HAL2     0.900000E-01   1.00800           0
     15795 MEMB     119      POPC     H3S      HAL2     0.900000E-01   1.00800           0
     15796 MEMB     119      POPC     C24      CTL2    -0.180000       12.0110           0
     15797 MEMB     119      POPC     H4R      HAL2     0.900000E-01   1.00800           0
     15798 MEMB     119      POPC     H4S      HAL2     0.900000E-01   1.00800           0
     15799 MEMB     119      POPC     C25      CTL2    -0.180000       12.0110           0
     15800 MEMB     119      POPC     H5R      HAL2     0.900000E-01   1.00800           0
     15801 MEMB     119      POPC     H5S      HAL2     0.900000E-01   1.00800           0
     15802 MEMB     119      POPC     C26      CTL2    -0.180000       12.0110           0
     15803 MEMB     119      POPC     H6R      HAL2     0.900000E-01   1.00800           0
     15804 MEMB     119      POPC     H6S      HAL2     0.900000E-01   1.00800           0
     15805 MEMB     119      POPC     C27      CTL2    -0.180000       12.0110           0
     15806 MEMB     119      POPC     H7R      HAL2     0.900000E-01   1.00800           0
     15807 MEMB     119      POPC     H7S      HAL2     0.900000E-01   1.00800           0
     15808 MEMB     119      POPC     C28      CTL2    -0.180000       12.0110           0
     15809 MEMB     119      POPC     H8R      HAL2     0.900000E-01   1.00800           0
     15810 MEMB     119      POPC     H8S      HAL2     0.900000E-01   1.00800           0
     15811 MEMB     119      POPC     C29      CEL1    -0.150000       12.0110           0
     15812 MEMB     119      POPC     H91      HEL1     0.150000       1.00800           0
     15813 MEMB     119      POPC     C210     CEL1    -0.150000       12.0110           0
     15814 MEMB     119      POPC     H101     HEL1     0.150000       1.00800           0
     15815 MEMB     119      POPC     C211     CTL2    -0.180000       12.0110           0
     15816 MEMB     119      POPC     H11R     HAL2     0.900000E-01   1.00800           0
     15817 MEMB     119      POPC     H11S     HAL2     0.900000E-01   1.00800           0
     15818 MEMB     119      POPC     C212     CTL2    -0.180000       12.0110           0
     15819 MEMB     119      POPC     H12R     HAL2     0.900000E-01   1.00800           0
     15820 MEMB     119      POPC     H12S     HAL2     0.900000E-01   1.00800           0
     15821 MEMB     119      POPC     C213     CTL2    -0.180000       12.0110           0
     15822 MEMB     119      POPC     H13R     HAL2     0.900000E-01   1.00800           0
     15823 MEMB     119      POPC     H13S     HAL2     0.900000E-01   1.00800           0
     15824 MEMB     119      POPC     C214     CTL2    -0.180000       12.0110           0
     15825 MEMB     119      POPC     H14R     HAL2     0.900000E-01   1.00800           0
     15826 MEMB     119      POPC     H14S     HAL2     0.900000E-01   1.00800           0
     15827 MEMB     119      POPC     C215     CTL2    -0.180000       12.0110           0
     15828 MEMB     119      POPC     H15R     HAL2     0.900000E-01   1.00800           0
     15829 MEMB     119      POPC     H15S     HAL2     0.900000E-01   1.00800           0
     15830 MEMB     119      POPC     C216     CTL2    -0.180000       12.0110           0
     15831 MEMB     119      POPC     H16R     HAL2     0.900000E-01   1.00800           0
     15832 MEMB     119      POPC     H16S     HAL2     0.900000E-01   1.00800           0
     15833 MEMB     119      POPC     C217     CTL2    -0.180000       12.0110           0
     15834 MEMB     119      POPC     H17R     HAL2     0.900000E-01   1.00800           0
     15835 MEMB     119      POPC     H17S     HAL2     0.900000E-01   1.00800           0
     15836 MEMB     119      POPC     C218     CTL3    -0.270000       12.0110           0
     15837 MEMB     119      POPC     H18R     HAL3     0.900000E-01   1.00800           0
     15838 MEMB     119      POPC     H18S     HAL3     0.900000E-01   1.00800           0
     15839 MEMB     119      POPC     H18T     HAL3     0.900000E-01   1.00800           0
     15840 MEMB     119      POPC     C33      CTL2    -0.180000       12.0110           0
     15841 MEMB     119      POPC     H3X      HAL2     0.900000E-01   1.00800           0
     15842 MEMB     119      POPC     H3Y      HAL2     0.900000E-01   1.00800           0
     15843 MEMB     119      POPC     C34      CTL2    -0.180000       12.0110           0
     15844 MEMB     119      POPC     H4X      HAL2     0.900000E-01   1.00800           0
     15845 MEMB     119      POPC     H4Y      HAL2     0.900000E-01   1.00800           0
     15846 MEMB     119      POPC     C35      CTL2    -0.180000       12.0110           0
     15847 MEMB     119      POPC     H5X      HAL2     0.900000E-01   1.00800           0
     15848 MEMB     119      POPC     H5Y      HAL2     0.900000E-01   1.00800           0
     15849 MEMB     119      POPC     C36      CTL2    -0.180000       12.0110           0
     15850 MEMB     119      POPC     H6X      HAL2     0.900000E-01   1.00800           0
     15851 MEMB     119      POPC     H6Y      HAL2     0.900000E-01   1.00800           0
     15852 MEMB     119      POPC     C37      CTL2    -0.180000       12.0110           0
     15853 MEMB     119      POPC     H7X      HAL2     0.900000E-01   1.00800           0
     15854 MEMB     119      POPC     H7Y      HAL2     0.900000E-01   1.00800           0
     15855 MEMB     119      POPC     C38      CTL2    -0.180000       12.0110           0
     15856 MEMB     119      POPC     H8X      HAL2     0.900000E-01   1.00800           0
     15857 MEMB     119      POPC     H8Y      HAL2     0.900000E-01   1.00800           0
     15858 MEMB     119      POPC     C39      CTL2    -0.180000       12.0110           0
     15859 MEMB     119      POPC     H9X      HAL2     0.900000E-01   1.00800           0
     15860 MEMB     119      POPC     H9Y      HAL2     0.900000E-01   1.00800           0
     15861 MEMB     119      POPC     C310     CTL2    -0.180000       12.0110           0
     15862 MEMB     119      POPC     H10X     HAL2     0.900000E-01   1.00800           0
     15863 MEMB     119      POPC     H10Y     HAL2     0.900000E-01   1.00800           0
     15864 MEMB     119      POPC     C311     CTL2    -0.180000       12.0110           0
     15865 MEMB     119      POPC     H11X     HAL2     0.900000E-01   1.00800           0
     15866 MEMB     119      POPC     H11Y     HAL2     0.900000E-01   1.00800           0
     15867 MEMB     119      POPC     C312     CTL2    -0.180000       12.0110           0
     15868 MEMB     119      POPC     H12X     HAL2     0.900000E-01   1.00800           0
     15869 MEMB     119      POPC     H12Y     HAL2     0.900000E-01   1.00800           0
     15870 MEMB     119      POPC     C313     CTL2    -0.180000       12.0110           0
     15871 MEMB     119      POPC     H13X     HAL2     0.900000E-01   1.00800           0
     15872 MEMB     119      POPC     H13Y     HAL2     0.900000E-01   1.00800           0
     15873 MEMB     119      POPC     C314     CTL2    -0.180000       12.0110           0
     15874 MEMB     119      POPC     H14X     HAL2     0.900000E-01   1.00800           0
     15875 MEMB     119      POPC     H14Y     HAL2     0.900000E-01   1.00800           0
     15876 MEMB     119      POPC     C315     CTL2    -0.180000       12.0110           0
     15877 MEMB     119      POPC     H15X     HAL2     0.900000E-01   1.00800           0
     15878 MEMB     119      POPC     H15Y     HAL2     0.900000E-01   1.00800           0
     15879 MEMB     119      POPC     C316     CTL3    -0.270000       12.0110           0
     15880 MEMB     119      POPC     H16X     HAL3     0.900000E-01   1.00800           0
     15881 MEMB     119      POPC     H16Y     HAL3     0.900000E-01   1.00800           0
     15882 MEMB     119      POPC     H16Z     HAL3     0.900000E-01   1.00800           0
     15883 MEMB     120      POPC     N        NTL     -0.600000       14.0070           0
     15884 MEMB     120      POPC     C12      CTL2    -0.100000       12.0110           0
     15885 MEMB     120      POPC     H12A     HL       0.250000       1.00800           0
     15886 MEMB     120      POPC     H12B     HL       0.250000       1.00800           0
     15887 MEMB     120      POPC     C13      CTL5    -0.350000       12.0110           0
     15888 MEMB     120      POPC     H13A     HL       0.250000       1.00800           0
     15889 MEMB     120      POPC     H13B     HL       0.250000       1.00800           0
     15890 MEMB     120      POPC     H13C     HL       0.250000       1.00800           0
     15891 MEMB     120      POPC     C14      CTL5    -0.350000       12.0110           0
     15892 MEMB     120      POPC     H14A     HL       0.250000       1.00800           0
     15893 MEMB     120      POPC     H14B     HL       0.250000       1.00800           0
     15894 MEMB     120      POPC     H14C     HL       0.250000       1.00800           0
     15895 MEMB     120      POPC     C15      CTL5    -0.350000       12.0110           0
     15896 MEMB     120      POPC     H15A     HL       0.250000       1.00800           0
     15897 MEMB     120      POPC     H15B     HL       0.250000       1.00800           0
     15898 MEMB     120      POPC     H15C     HL       0.250000       1.00800           0
     15899 MEMB     120      POPC     C11      CTL2    -0.800000E-01   12.0110           0
     15900 MEMB     120      POPC     H11A     HAL2     0.900000E-01   1.00800           0
     15901 MEMB     120      POPC     H11B     HAL2     0.900000E-01   1.00800           0
     15902 MEMB     120      POPC     P        PL        1.50000       30.9740           0
     15903 MEMB     120      POPC     O13      O2L     -0.780000       15.9994           0
     15904 MEMB     120      POPC     O14      O2L     -0.780000       15.9994           0
     15905 MEMB     120      POPC     O12      OSLP    -0.570000       15.9994           0
     15906 MEMB     120      POPC     O11      OSLP    -0.570000       15.9994           0
     15907 MEMB     120      POPC     C1       CTL2    -0.800000E-01   12.0110           0
     15908 MEMB     120      POPC     HA       HAL2     0.900000E-01   1.00800           0
     15909 MEMB     120      POPC     HB       HAL2     0.900000E-01   1.00800           0
     15910 MEMB     120      POPC     C2       CTL1     0.170000       12.0110           0
     15911 MEMB     120      POPC     HS       HAL1     0.900000E-01   1.00800           0
     15912 MEMB     120      POPC     O21      OSL     -0.490000       15.9994           0
     15913 MEMB     120      POPC     C21      CL       0.900000       12.0110           0
     15914 MEMB     120      POPC     O22      OBL     -0.630000       15.9994           0
     15915 MEMB     120      POPC     C22      CTL2    -0.220000       12.0110           0
     15916 MEMB     120      POPC     H2R      HAL2     0.900000E-01   1.00800           0
     15917 MEMB     120      POPC     H2S      HAL2     0.900000E-01   1.00800           0
     15918 MEMB     120      POPC     C3       CTL2     0.800000E-01   12.0110           0
     15919 MEMB     120      POPC     HX       HAL2     0.900000E-01   1.00800           0
     15920 MEMB     120      POPC     HY       HAL2     0.900000E-01   1.00800           0
     15921 MEMB     120      POPC     O31      OSL     -0.490000       15.9994           0
     15922 MEMB     120      POPC     C31      CL       0.900000       12.0110           0
     15923 MEMB     120      POPC     O32      OBL     -0.630000       15.9994           0
     15924 MEMB     120      POPC     C32      CTL2    -0.220000       12.0110           0
     15925 MEMB     120      POPC     H2X      HAL2     0.900000E-01   1.00800           0
     15926 MEMB     120      POPC     H2Y      HAL2     0.900000E-01   1.00800           0
     15927 MEMB     120      POPC     C23      CTL2    -0.180000       12.0110           0
     15928 MEMB     120      POPC     H3R      HAL2     0.900000E-01   1.00800           0
     15929 MEMB     120      POPC     H3S      HAL2     0.900000E-01   1.00800           0
     15930 MEMB     120      POPC     C24      CTL2    -0.180000       12.0110           0
     15931 MEMB     120      POPC     H4R      HAL2     0.900000E-01   1.00800           0
     15932 MEMB     120      POPC     H4S      HAL2     0.900000E-01   1.00800           0
     15933 MEMB     120      POPC     C25      CTL2    -0.180000       12.0110           0
     15934 MEMB     120      POPC     H5R      HAL2     0.900000E-01   1.00800           0
     15935 MEMB     120      POPC     H5S      HAL2     0.900000E-01   1.00800           0
     15936 MEMB     120      POPC     C26      CTL2    -0.180000       12.0110           0
     15937 MEMB     120      POPC     H6R      HAL2     0.900000E-01   1.00800           0
     15938 MEMB     120      POPC     H6S      HAL2     0.900000E-01   1.00800           0
     15939 MEMB     120      POPC     C27      CTL2    -0.180000       12.0110           0
     15940 MEMB     120      POPC     H7R      HAL2     0.900000E-01   1.00800           0
     15941 MEMB     120      POPC     H7S      HAL2     0.900000E-01   1.00800           0
     15942 MEMB     120      POPC     C28      CTL2    -0.180000       12.0110           0
     15943 MEMB     120      POPC     H8R      HAL2     0.900000E-01   1.00800           0
     15944 MEMB     120      POPC     H8S      HAL2     0.900000E-01   1.00800           0
     15945 MEMB     120      POPC     C29      CEL1    -0.150000       12.0110           0
     15946 MEMB     120      POPC     H91      HEL1     0.150000       1.00800           0
     15947 MEMB     120      POPC     C210     CEL1    -0.150000       12.0110           0
     15948 MEMB     120      POPC     H101     HEL1     0.150000       1.00800           0
     15949 MEMB     120      POPC     C211     CTL2    -0.180000       12.0110           0
     15950 MEMB     120      POPC     H11R     HAL2     0.900000E-01   1.00800           0
     15951 MEMB     120      POPC     H11S     HAL2     0.900000E-01   1.00800           0
     15952 MEMB     120      POPC     C212     CTL2    -0.180000       12.0110           0
     15953 MEMB     120      POPC     H12R     HAL2     0.900000E-01   1.00800           0
     15954 MEMB     120      POPC     H12S     HAL2     0.900000E-01   1.00800           0
     15955 MEMB     120      POPC     C213     CTL2    -0.180000       12.0110           0
     15956 MEMB     120      POPC     H13R     HAL2     0.900000E-01   1.00800           0
     15957 MEMB     120      POPC     H13S     HAL2     0.900000E-01   1.00800           0
     15958 MEMB     120      POPC     C214     CTL2    -0.180000       12.0110           0
     15959 MEMB     120      POPC     H14R     HAL2     0.900000E-01   1.00800           0
     15960 MEMB     120      POPC     H14S     HAL2     0.900000E-01   1.00800           0
     15961 MEMB     120      POPC     C215     CTL2    -0.180000       12.0110           0
     15962 MEMB     120      POPC     H15R     HAL2     0.900000E-01   1.00800           0
     15963 MEMB     120      POPC     H15S     HAL2     0.900000E-01   1.00800           0
     15964 MEMB     120      POPC     C216     CTL2    -0.180000       12.0110           0
     15965 MEMB     120      POPC     H16R     HAL2     0.900000E-01   1.00800           0
     15966 MEMB     120      POPC     H16S     HAL2     0.900000E-01   1.00800           0
     15967 MEMB     120      POPC     C217     CTL2    -0.180000       12.0110           0
     15968 MEMB     120      POPC     H17R     HAL2     0.900000E-01   1.00800           0
     15969 MEMB     120      POPC     H17S     HAL2     0.900000E-01   1.00800           0
     15970 MEMB     120      POPC     C218     CTL3    -0.270000       12.0110           0
     15971 MEMB     120      POPC     H18R     HAL3     0.900000E-01   1.00800           0
     15972 MEMB     120      POPC     H18S     HAL3     0.900000E-01   1.00800           0
     15973 MEMB     120      POPC     H18T     HAL3     0.900000E-01   1.00800           0
     15974 MEMB     120      POPC     C33      CTL2    -0.180000       12.0110           0
     15975 MEMB     120      POPC     H3X      HAL2     0.900000E-01   1.00800           0
     15976 MEMB     120      POPC     H3Y      HAL2     0.900000E-01   1.00800           0
     15977 MEMB     120      POPC     C34      CTL2    -0.180000       12.0110           0
     15978 MEMB     120      POPC     H4X      HAL2     0.900000E-01   1.00800           0
     15979 MEMB     120      POPC     H4Y      HAL2     0.900000E-01   1.00800           0
     15980 MEMB     120      POPC     C35      CTL2    -0.180000       12.0110           0
     15981 MEMB     120      POPC     H5X      HAL2     0.900000E-01   1.00800           0
     15982 MEMB     120      POPC     H5Y      HAL2     0.900000E-01   1.00800           0
     15983 MEMB     120      POPC     C36      CTL2    -0.180000       12.0110           0
     15984 MEMB     120      POPC     H6X      HAL2     0.900000E-01   1.00800           0
     15985 MEMB     120      POPC     H6Y      HAL2     0.900000E-01   1.00800           0
     15986 MEMB     120      POPC     C37      CTL2    -0.180000       12.0110           0
     15987 MEMB     120      POPC     H7X      HAL2     0.900000E-01   1.00800           0
     15988 MEMB     120      POPC     H7Y      HAL2     0.900000E-01   1.00800           0
     15989 MEMB     120      POPC     C38      CTL2    -0.180000       12.0110           0
     15990 MEMB     120      POPC     H8X      HAL2     0.900000E-01   1.00800           0
     15991 MEMB     120      POPC     H8Y      HAL2     0.900000E-01   1.00800           0
     15992 MEMB     120      POPC     C39      CTL2    -0.180000       12.0110           0
     15993 MEMB     120      POPC     H9X      HAL2     0.900000E-01   1.00800           0
     15994 MEMB     120      POPC     H9Y      HAL2     0.900000E-01   1.00800           0
     15995 MEMB     120      POPC     C310     CTL2    -0.180000       12.0110           0
     15996 MEMB     120      POPC     H10X     HAL2     0.900000E-01   1.00800           0
     15997 MEMB     120      POPC     H10Y     HAL2     0.900000E-01   1.00800           0
     15998 MEMB     120      POPC     C311     CTL2    -0.180000       12.0110           0
     15999 MEMB     120      POPC     H11X     HAL2     0.900000E-01   1.00800           0
     16000 MEMB     120      POPC     H11Y     HAL2     0.900000E-01   1.00800           0
     16001 MEMB     120      POPC     C312     CTL2    -0.180000       12.0110           0
     16002 MEMB     120      POPC     H12X     HAL2     0.900000E-01   1.00800           0
     16003 MEMB     120      POPC     H12Y     HAL2     0.900000E-01   1.00800           0
     16004 MEMB     120      POPC     C313     CTL2    -0.180000       12.0110           0
     16005 MEMB     120      POPC     H13X     HAL2     0.900000E-01   1.00800           0
     16006 MEMB     120      POPC     H13Y     HAL2     0.900000E-01   1.00800           0
     16007 MEMB     120      POPC     C314     CTL2    -0.180000       12.0110           0
     16008 MEMB     120      POPC     H14X     HAL2     0.900000E-01   1.00800           0
     16009 MEMB     120      POPC     H14Y     HAL2     0.900000E-01   1.00800           0
     16010 MEMB     120      POPC     C315     CTL2    -0.180000       12.0110           0
     16011 MEMB     120      POPC     H15X     HAL2     0.900000E-01   1.00800           0
     16012 MEMB     120      POPC     H15Y     HAL2     0.900000E-01   1.00800           0
     16013 MEMB     120      POPC     C316     CTL3    -0.270000       12.0110           0
     16014 MEMB     120      POPC     H16X     HAL3     0.900000E-01   1.00800           0
     16015 MEMB     120      POPC     H16Y     HAL3     0.900000E-01   1.00800           0
     16016 MEMB     120      POPC     H16Z     HAL3     0.900000E-01   1.00800           0
     16017 MEMB     121      POPS     N        NH3L    -0.300000       14.0070           0
     16018 MEMB     121      POPS     HN1      HCL      0.330000       1.00800           0
     16019 MEMB     121      POPS     HN2      HCL      0.330000       1.00800           0
     16020 MEMB     121      POPS     HN3      HCL      0.330000       1.00800           0
     16021 MEMB     121      POPS     C12      CTL1     0.210000       12.0110           0
     16022 MEMB     121      POPS     H12A     HBL      0.100000       1.00800           0
     16023 MEMB     121      POPS     C13      CCL      0.340000       12.0110           0
     16024 MEMB     121      POPS     O13A     OCL     -0.670000       15.9994           0
     16025 MEMB     121      POPS     O13B     OCL     -0.670000       15.9994           0
     16026 MEMB     121      POPS     C11      CTL2    -0.800000E-01   12.0110           0
     16027 MEMB     121      POPS     H11A     HAL2     0.900000E-01   1.00800           0
     16028 MEMB     121      POPS     H11B     HAL2     0.900000E-01   1.00800           0
     16029 MEMB     121      POPS     P        PL        1.50000       30.9740           0
     16030 MEMB     121      POPS     O13      O2L     -0.780000       15.9994           0
     16031 MEMB     121      POPS     O14      O2L     -0.780000       15.9994           0
     16032 MEMB     121      POPS     O12      OSLP    -0.570000       15.9994           0
     16033 MEMB     121      POPS     O11      OSLP    -0.570000       15.9994           0
     16034 MEMB     121      POPS     C1       CTL2    -0.800000E-01   12.0110           0
     16035 MEMB     121      POPS     HA       HAL2     0.900000E-01   1.00800           0
     16036 MEMB     121      POPS     HB       HAL2     0.900000E-01   1.00800           0
     16037 MEMB     121      POPS     C2       CTL1     0.170000       12.0110           0
     16038 MEMB     121      POPS     HS       HAL1     0.900000E-01   1.00800           0
     16039 MEMB     121      POPS     O21      OSL     -0.490000       15.9994           0
     16040 MEMB     121      POPS     C21      CL       0.900000       12.0110           0
     16041 MEMB     121      POPS     O22      OBL     -0.630000       15.9994           0
     16042 MEMB     121      POPS     C22      CTL2    -0.220000       12.0110           0
     16043 MEMB     121      POPS     H2R      HAL2     0.900000E-01   1.00800           0
     16044 MEMB     121      POPS     H2S      HAL2     0.900000E-01   1.00800           0
     16045 MEMB     121      POPS     C3       CTL2     0.800000E-01   12.0110           0
     16046 MEMB     121      POPS     HX       HAL2     0.900000E-01   1.00800           0
     16047 MEMB     121      POPS     HY       HAL2     0.900000E-01   1.00800           0
     16048 MEMB     121      POPS     O31      OSL     -0.490000       15.9994           0
     16049 MEMB     121      POPS     C31      CL       0.900000       12.0110           0
     16050 MEMB     121      POPS     O32      OBL     -0.630000       15.9994           0
     16051 MEMB     121      POPS     C32      CTL2    -0.220000       12.0110           0
     16052 MEMB     121      POPS     H2X      HAL2     0.900000E-01   1.00800           0
     16053 MEMB     121      POPS     H2Y      HAL2     0.900000E-01   1.00800           0
     16054 MEMB     121      POPS     C23      CTL2    -0.180000       12.0110           0
     16055 MEMB     121      POPS     H3R      HAL2     0.900000E-01   1.00800           0
     16056 MEMB     121      POPS     H3S      HAL2     0.900000E-01   1.00800           0
     16057 MEMB     121      POPS     C24      CTL2    -0.180000       12.0110           0
     16058 MEMB     121      POPS     H4R      HAL2     0.900000E-01   1.00800           0
     16059 MEMB     121      POPS     H4S      HAL2     0.900000E-01   1.00800           0
     16060 MEMB     121      POPS     C25      CTL2    -0.180000       12.0110           0
     16061 MEMB     121      POPS     H5R      HAL2     0.900000E-01   1.00800           0
     16062 MEMB     121      POPS     H5S      HAL2     0.900000E-01   1.00800           0
     16063 MEMB     121      POPS     C26      CTL2    -0.180000       12.0110           0
     16064 MEMB     121      POPS     H6R      HAL2     0.900000E-01   1.00800           0
     16065 MEMB     121      POPS     H6S      HAL2     0.900000E-01   1.00800           0
     16066 MEMB     121      POPS     C27      CTL2    -0.180000       12.0110           0
     16067 MEMB     121      POPS     H7R      HAL2     0.900000E-01   1.00800           0
     16068 MEMB     121      POPS     H7S      HAL2     0.900000E-01   1.00800           0
     16069 MEMB     121      POPS     C28      CTL2    -0.180000       12.0110           0
     16070 MEMB     121      POPS     H8R      HAL2     0.900000E-01   1.00800           0
     16071 MEMB     121      POPS     H8S      HAL2     0.900000E-01   1.00800           0
     16072 MEMB     121      POPS     C29      CEL1    -0.150000       12.0110           0
     16073 MEMB     121      POPS     H91      HEL1     0.150000       1.00800           0
     16074 MEMB     121      POPS     C210     CEL1    -0.150000       12.0110           0
     16075 MEMB     121      POPS     H101     HEL1     0.150000       1.00800           0
     16076 MEMB     121      POPS     C211     CTL2    -0.180000       12.0110           0
     16077 MEMB     121      POPS     H11R     HAL2     0.900000E-01   1.00800           0
     16078 MEMB     121      POPS     H11S     HAL2     0.900000E-01   1.00800           0
     16079 MEMB     121      POPS     C212     CTL2    -0.180000       12.0110           0
     16080 MEMB     121      POPS     H12R     HAL2     0.900000E-01   1.00800           0
     16081 MEMB     121      POPS     H12S     HAL2     0.900000E-01   1.00800           0
     16082 MEMB     121      POPS     C213     CTL2    -0.180000       12.0110           0
     16083 MEMB     121      POPS     H13R     HAL2     0.900000E-01   1.00800           0
     16084 MEMB     121      POPS     H13S     HAL2     0.900000E-01   1.00800           0
     16085 MEMB     121      POPS     C214     CTL2    -0.180000       12.0110           0
     16086 MEMB     121      POPS     H14R     HAL2     0.900000E-01   1.00800           0
     16087 MEMB     121      POPS     H14S     HAL2     0.900000E-01   1.00800           0
     16088 MEMB     121      POPS     C215     CTL2    -0.180000       12.0110           0
     16089 MEMB     121      POPS     H15R     HAL2     0.900000E-01   1.00800           0
     16090 MEMB     121      POPS     H15S     HAL2     0.900000E-01   1.00800           0
     16091 MEMB     121      POPS     C216     CTL2    -0.180000       12.0110           0
     16092 MEMB     121      POPS     H16R     HAL2     0.900000E-01   1.00800           0
     16093 MEMB     121      POPS     H16S     HAL2     0.900000E-01   1.00800           0
     16094 MEMB     121      POPS     C217     CTL2    -0.180000       12.0110           0
     16095 MEMB     121      POPS     H17R     HAL2     0.900000E-01   1.00800           0
     16096 MEMB     121      POPS     H17S     HAL2     0.900000E-01   1.00800           0
     16097 MEMB     121      POPS     C218     CTL3    -0.270000       12.0110           0
     16098 MEMB     121      POPS     H18R     HAL3     0.900000E-01   1.00800           0
     16099 MEMB     121      POPS     H18S     HAL3     0.900000E-01   1.00800           0
     16100 MEMB     121      POPS     H18T     HAL3     0.900000E-01   1.00800           0
     16101 MEMB     121      POPS     C33      CTL2    -0.180000       12.0110           0
     16102 MEMB     121      POPS     H3X      HAL2     0.900000E-01   1.00800           0
     16103 MEMB     121      POPS     H3Y      HAL2     0.900000E-01   1.00800           0
     16104 MEMB     121      POPS     C34      CTL2    -0.180000       12.0110           0
     16105 MEMB     121      POPS     H4X      HAL2     0.900000E-01   1.00800           0
     16106 MEMB     121      POPS     H4Y      HAL2     0.900000E-01   1.00800           0
     16107 MEMB     121      POPS     C35      CTL2    -0.180000       12.0110           0
     16108 MEMB     121      POPS     H5X      HAL2     0.900000E-01   1.00800           0
     16109 MEMB     121      POPS     H5Y      HAL2     0.900000E-01   1.00800           0
     16110 MEMB     121      POPS     C36      CTL2    -0.180000       12.0110           0
     16111 MEMB     121      POPS     H6X      HAL2     0.900000E-01   1.00800           0
     16112 MEMB     121      POPS     H6Y      HAL2     0.900000E-01   1.00800           0
     16113 MEMB     121      POPS     C37      CTL2    -0.180000       12.0110           0
     16114 MEMB     121      POPS     H7X      HAL2     0.900000E-01   1.00800           0
     16115 MEMB     121      POPS     H7Y      HAL2     0.900000E-01   1.00800           0
     16116 MEMB     121      POPS     C38      CTL2    -0.180000       12.0110           0
     16117 MEMB     121      POPS     H8X      HAL2     0.900000E-01   1.00800           0
     16118 MEMB     121      POPS     H8Y      HAL2     0.900000E-01   1.00800           0
     16119 MEMB     121      POPS     C39      CTL2    -0.180000       12.0110           0
     16120 MEMB     121      POPS     H9X      HAL2     0.900000E-01   1.00800           0
     16121 MEMB     121      POPS     H9Y      HAL2     0.900000E-01   1.00800           0
     16122 MEMB     121      POPS     C310     CTL2    -0.180000       12.0110           0
     16123 MEMB     121      POPS     H10X     HAL2     0.900000E-01   1.00800           0
     16124 MEMB     121      POPS     H10Y     HAL2     0.900000E-01   1.00800           0
     16125 MEMB     121      POPS     C311     CTL2    -0.180000       12.0110           0
     16126 MEMB     121      POPS     H11X     HAL2     0.900000E-01   1.00800           0
     16127 MEMB     121      POPS     H11Y     HAL2     0.900000E-01   1.00800           0
     16128 MEMB     121      POPS     C312     CTL2    -0.180000       12.0110           0
     16129 MEMB     121      POPS     H12X     HAL2     0.900000E-01   1.00800           0
     16130 MEMB     121      POPS     H12Y     HAL2     0.900000E-01   1.00800           0
     16131 MEMB     121      POPS     C313     CTL2    -0.180000       12.0110           0
     16132 MEMB     121      POPS     H13X     HAL2     0.900000E-01   1.00800           0
     16133 MEMB     121      POPS     H13Y     HAL2     0.900000E-01   1.00800           0
     16134 MEMB     121      POPS     C314     CTL2    -0.180000       12.0110           0
     16135 MEMB     121      POPS     H14X     HAL2     0.900000E-01   1.00800           0
     16136 MEMB     121      POPS     H14Y     HAL2     0.900000E-01   1.00800           0
     16137 MEMB     121      POPS     C315     CTL2    -0.180000       12.0110           0
     16138 MEMB     121      POPS     H15X     HAL2     0.900000E-01   1.00800           0
     16139 MEMB     121      POPS     H15Y     HAL2     0.900000E-01   1.00800           0
     16140 MEMB     121      POPS     C316     CTL3    -0.270000       12.0110           0
     16141 MEMB     121      POPS     H16X     HAL3     0.900000E-01   1.00800           0
     16142 MEMB     121      POPS     H16Y     HAL3     0.900000E-01   1.00800           0
     16143 MEMB     121      POPS     H16Z     HAL3     0.900000E-01   1.00800           0
     16144 MEMB     122      POPC     N        NTL     -0.600000       14.0070           0
     16145 MEMB     122      POPC     C12      CTL2    -0.100000       12.0110           0
     16146 MEMB     122      POPC     H12A     HL       0.250000       1.00800           0
     16147 MEMB     122      POPC     H12B     HL       0.250000       1.00800           0
     16148 MEMB     122      POPC     C13      CTL5    -0.350000       12.0110           0
     16149 MEMB     122      POPC     H13A     HL       0.250000       1.00800           0
     16150 MEMB     122      POPC     H13B     HL       0.250000       1.00800           0
     16151 MEMB     122      POPC     H13C     HL       0.250000       1.00800           0
     16152 MEMB     122      POPC     C14      CTL5    -0.350000       12.0110           0
     16153 MEMB     122      POPC     H14A     HL       0.250000       1.00800           0
     16154 MEMB     122      POPC     H14B     HL       0.250000       1.00800           0
     16155 MEMB     122      POPC     H14C     HL       0.250000       1.00800           0
     16156 MEMB     122      POPC     C15      CTL5    -0.350000       12.0110           0
     16157 MEMB     122      POPC     H15A     HL       0.250000       1.00800           0
     16158 MEMB     122      POPC     H15B     HL       0.250000       1.00800           0
     16159 MEMB     122      POPC     H15C     HL       0.250000       1.00800           0
     16160 MEMB     122      POPC     C11      CTL2    -0.800000E-01   12.0110           0
     16161 MEMB     122      POPC     H11A     HAL2     0.900000E-01   1.00800           0
     16162 MEMB     122      POPC     H11B     HAL2     0.900000E-01   1.00800           0
     16163 MEMB     122      POPC     P        PL        1.50000       30.9740           0
     16164 MEMB     122      POPC     O13      O2L     -0.780000       15.9994           0
     16165 MEMB     122      POPC     O14      O2L     -0.780000       15.9994           0
     16166 MEMB     122      POPC     O12      OSLP    -0.570000       15.9994           0
     16167 MEMB     122      POPC     O11      OSLP    -0.570000       15.9994           0
     16168 MEMB     122      POPC     C1       CTL2    -0.800000E-01   12.0110           0
     16169 MEMB     122      POPC     HA       HAL2     0.900000E-01   1.00800           0
     16170 MEMB     122      POPC     HB       HAL2     0.900000E-01   1.00800           0
     16171 MEMB     122      POPC     C2       CTL1     0.170000       12.0110           0
     16172 MEMB     122      POPC     HS       HAL1     0.900000E-01   1.00800           0
     16173 MEMB     122      POPC     O21      OSL     -0.490000       15.9994           0
     16174 MEMB     122      POPC     C21      CL       0.900000       12.0110           0
     16175 MEMB     122      POPC     O22      OBL     -0.630000       15.9994           0
     16176 MEMB     122      POPC     C22      CTL2    -0.220000       12.0110           0
     16177 MEMB     122      POPC     H2R      HAL2     0.900000E-01   1.00800           0
     16178 MEMB     122      POPC     H2S      HAL2     0.900000E-01   1.00800           0
     16179 MEMB     122      POPC     C3       CTL2     0.800000E-01   12.0110           0
     16180 MEMB     122      POPC     HX       HAL2     0.900000E-01   1.00800           0
     16181 MEMB     122      POPC     HY       HAL2     0.900000E-01   1.00800           0
     16182 MEMB     122      POPC     O31      OSL     -0.490000       15.9994           0
     16183 MEMB     122      POPC     C31      CL       0.900000       12.0110           0
     16184 MEMB     122      POPC     O32      OBL     -0.630000       15.9994           0
     16185 MEMB     122      POPC     C32      CTL2    -0.220000       12.0110           0
     16186 MEMB     122      POPC     H2X      HAL2     0.900000E-01   1.00800           0
     16187 MEMB     122      POPC     H2Y      HAL2     0.900000E-01   1.00800           0
     16188 MEMB     122      POPC     C23      CTL2    -0.180000       12.0110           0
     16189 MEMB     122      POPC     H3R      HAL2     0.900000E-01   1.00800           0
     16190 MEMB     122      POPC     H3S      HAL2     0.900000E-01   1.00800           0
     16191 MEMB     122      POPC     C24      CTL2    -0.180000       12.0110           0
     16192 MEMB     122      POPC     H4R      HAL2     0.900000E-01   1.00800           0
     16193 MEMB     122      POPC     H4S      HAL2     0.900000E-01   1.00800           0
     16194 MEMB     122      POPC     C25      CTL2    -0.180000       12.0110           0
     16195 MEMB     122      POPC     H5R      HAL2     0.900000E-01   1.00800           0
     16196 MEMB     122      POPC     H5S      HAL2     0.900000E-01   1.00800           0
     16197 MEMB     122      POPC     C26      CTL2    -0.180000       12.0110           0
     16198 MEMB     122      POPC     H6R      HAL2     0.900000E-01   1.00800           0
     16199 MEMB     122      POPC     H6S      HAL2     0.900000E-01   1.00800           0
     16200 MEMB     122      POPC     C27      CTL2    -0.180000       12.0110           0
     16201 MEMB     122      POPC     H7R      HAL2     0.900000E-01   1.00800           0
     16202 MEMB     122      POPC     H7S      HAL2     0.900000E-01   1.00800           0
     16203 MEMB     122      POPC     C28      CTL2    -0.180000       12.0110           0
     16204 MEMB     122      POPC     H8R      HAL2     0.900000E-01   1.00800           0
     16205 MEMB     122      POPC     H8S      HAL2     0.900000E-01   1.00800           0
     16206 MEMB     122      POPC     C29      CEL1    -0.150000       12.0110           0
     16207 MEMB     122      POPC     H91      HEL1     0.150000       1.00800           0
     16208 MEMB     122      POPC     C210     CEL1    -0.150000       12.0110           0
     16209 MEMB     122      POPC     H101     HEL1     0.150000       1.00800           0
     16210 MEMB     122      POPC     C211     CTL2    -0.180000       12.0110           0
     16211 MEMB     122      POPC     H11R     HAL2     0.900000E-01   1.00800           0
     16212 MEMB     122      POPC     H11S     HAL2     0.900000E-01   1.00800           0
     16213 MEMB     122      POPC     C212     CTL2    -0.180000       12.0110           0
     16214 MEMB     122      POPC     H12R     HAL2     0.900000E-01   1.00800           0
     16215 MEMB     122      POPC     H12S     HAL2     0.900000E-01   1.00800           0
     16216 MEMB     122      POPC     C213     CTL2    -0.180000       12.0110           0
     16217 MEMB     122      POPC     H13R     HAL2     0.900000E-01   1.00800           0
     16218 MEMB     122      POPC     H13S     HAL2     0.900000E-01   1.00800           0
     16219 MEMB     122      POPC     C214     CTL2    -0.180000       12.0110           0
     16220 MEMB     122      POPC     H14R     HAL2     0.900000E-01   1.00800           0
     16221 MEMB     122      POPC     H14S     HAL2     0.900000E-01   1.00800           0
     16222 MEMB     122      POPC     C215     CTL2    -0.180000       12.0110           0
     16223 MEMB     122      POPC     H15R     HAL2     0.900000E-01   1.00800           0
     16224 MEMB     122      POPC     H15S     HAL2     0.900000E-01   1.00800           0
     16225 MEMB     122      POPC     C216     CTL2    -0.180000       12.0110           0
     16226 MEMB     122      POPC     H16R     HAL2     0.900000E-01   1.00800           0
     16227 MEMB     122      POPC     H16S     HAL2     0.900000E-01   1.00800           0
     16228 MEMB     122      POPC     C217     CTL2    -0.180000       12.0110           0
     16229 MEMB     122      POPC     H17R     HAL2     0.900000E-01   1.00800           0
     16230 MEMB     122      POPC     H17S     HAL2     0.900000E-01   1.00800           0
     16231 MEMB     122      POPC     C218     CTL3    -0.270000       12.0110           0
     16232 MEMB     122      POPC     H18R     HAL3     0.900000E-01   1.00800           0
     16233 MEMB     122      POPC     H18S     HAL3     0.900000E-01   1.00800           0
     16234 MEMB     122      POPC     H18T     HAL3     0.900000E-01   1.00800           0
     16235 MEMB     122      POPC     C33      CTL2    -0.180000       12.0110           0
     16236 MEMB     122      POPC     H3X      HAL2     0.900000E-01   1.00800           0
     16237 MEMB     122      POPC     H3Y      HAL2     0.900000E-01   1.00800           0
     16238 MEMB     122      POPC     C34      CTL2    -0.180000       12.0110           0
     16239 MEMB     122      POPC     H4X      HAL2     0.900000E-01   1.00800           0
     16240 MEMB     122      POPC     H4Y      HAL2     0.900000E-01   1.00800           0
     16241 MEMB     122      POPC     C35      CTL2    -0.180000       12.0110           0
     16242 MEMB     122      POPC     H5X      HAL2     0.900000E-01   1.00800           0
     16243 MEMB     122      POPC     H5Y      HAL2     0.900000E-01   1.00800           0
     16244 MEMB     122      POPC     C36      CTL2    -0.180000       12.0110           0
     16245 MEMB     122      POPC     H6X      HAL2     0.900000E-01   1.00800           0
     16246 MEMB     122      POPC     H6Y      HAL2     0.900000E-01   1.00800           0
     16247 MEMB     122      POPC     C37      CTL2    -0.180000       12.0110           0
     16248 MEMB     122      POPC     H7X      HAL2     0.900000E-01   1.00800           0
     16249 MEMB     122      POPC     H7Y      HAL2     0.900000E-01   1.00800           0
     16250 MEMB     122      POPC     C38      CTL2    -0.180000       12.0110           0
     16251 MEMB     122      POPC     H8X      HAL2     0.900000E-01   1.00800           0
     16252 MEMB     122      POPC     H8Y      HAL2     0.900000E-01   1.00800           0
     16253 MEMB     122      POPC     C39      CTL2    -0.180000       12.0110           0
     16254 MEMB     122      POPC     H9X      HAL2     0.900000E-01   1.00800           0
     16255 MEMB     122      POPC     H9Y      HAL2     0.900000E-01   1.00800           0
     16256 MEMB     122      POPC     C310     CTL2    -0.180000       12.0110           0
     16257 MEMB     122      POPC     H10X     HAL2     0.900000E-01   1.00800           0
     16258 MEMB     122      POPC     H10Y     HAL2     0.900000E-01   1.00800           0
     16259 MEMB     122      POPC     C311     CTL2    -0.180000       12.0110           0
     16260 MEMB     122      POPC     H11X     HAL2     0.900000E-01   1.00800           0
     16261 MEMB     122      POPC     H11Y     HAL2     0.900000E-01   1.00800           0
     16262 MEMB     122      POPC     C312     CTL2    -0.180000       12.0110           0
     16263 MEMB     122      POPC     H12X     HAL2     0.900000E-01   1.00800           0
     16264 MEMB     122      POPC     H12Y     HAL2     0.900000E-01   1.00800           0
     16265 MEMB     122      POPC     C313     CTL2    -0.180000       12.0110           0
     16266 MEMB     122      POPC     H13X     HAL2     0.900000E-01   1.00800           0
     16267 MEMB     122      POPC     H13Y     HAL2     0.900000E-01   1.00800           0
     16268 MEMB     122      POPC     C314     CTL2    -0.180000       12.0110           0
     16269 MEMB     122      POPC     H14X     HAL2     0.900000E-01   1.00800           0
     16270 MEMB     122      POPC     H14Y     HAL2     0.900000E-01   1.00800           0
     16271 MEMB     122      POPC     C315     CTL2    -0.180000       12.0110           0
     16272 MEMB     122      POPC     H15X     HAL2     0.900000E-01   1.00800           0
     16273 MEMB     122      POPC     H15Y     HAL2     0.900000E-01   1.00800           0
     16274 MEMB     122      POPC     C316     CTL3    -0.270000       12.0110           0
     16275 MEMB     122      POPC     H16X     HAL3     0.900000E-01   1.00800           0
     16276 MEMB     122      POPC     H16Y     HAL3     0.900000E-01   1.00800           0
     16277 MEMB     122      POPC     H16Z     HAL3     0.900000E-01   1.00800           0
     16278 MEMB     123      POPC     N        NTL     -0.600000       14.0070           0
     16279 MEMB     123      POPC     C12      CTL2    -0.100000       12.0110           0
     16280 MEMB     123      POPC     H12A     HL       0.250000       1.00800           0
     16281 MEMB     123      POPC     H12B     HL       0.250000       1.00800           0
     16282 MEMB     123      POPC     C13      CTL5    -0.350000       12.0110           0
     16283 MEMB     123      POPC     H13A     HL       0.250000       1.00800           0
     16284 MEMB     123      POPC     H13B     HL       0.250000       1.00800           0
     16285 MEMB     123      POPC     H13C     HL       0.250000       1.00800           0
     16286 MEMB     123      POPC     C14      CTL5    -0.350000       12.0110           0
     16287 MEMB     123      POPC     H14A     HL       0.250000       1.00800           0
     16288 MEMB     123      POPC     H14B     HL       0.250000       1.00800           0
     16289 MEMB     123      POPC     H14C     HL       0.250000       1.00800           0
     16290 MEMB     123      POPC     C15      CTL5    -0.350000       12.0110           0
     16291 MEMB     123      POPC     H15A     HL       0.250000       1.00800           0
     16292 MEMB     123      POPC     H15B     HL       0.250000       1.00800           0
     16293 MEMB     123      POPC     H15C     HL       0.250000       1.00800           0
     16294 MEMB     123      POPC     C11      CTL2    -0.800000E-01   12.0110           0
     16295 MEMB     123      POPC     H11A     HAL2     0.900000E-01   1.00800           0
     16296 MEMB     123      POPC     H11B     HAL2     0.900000E-01   1.00800           0
     16297 MEMB     123      POPC     P        PL        1.50000       30.9740           0
     16298 MEMB     123      POPC     O13      O2L     -0.780000       15.9994           0
     16299 MEMB     123      POPC     O14      O2L     -0.780000       15.9994           0
     16300 MEMB     123      POPC     O12      OSLP    -0.570000       15.9994           0
     16301 MEMB     123      POPC     O11      OSLP    -0.570000       15.9994           0
     16302 MEMB     123      POPC     C1       CTL2    -0.800000E-01   12.0110           0
     16303 MEMB     123      POPC     HA       HAL2     0.900000E-01   1.00800           0
     16304 MEMB     123      POPC     HB       HAL2     0.900000E-01   1.00800           0
     16305 MEMB     123      POPC     C2       CTL1     0.170000       12.0110           0
     16306 MEMB     123      POPC     HS       HAL1     0.900000E-01   1.00800           0
     16307 MEMB     123      POPC     O21      OSL     -0.490000       15.9994           0
     16308 MEMB     123      POPC     C21      CL       0.900000       12.0110           0
     16309 MEMB     123      POPC     O22      OBL     -0.630000       15.9994           0
     16310 MEMB     123      POPC     C22      CTL2    -0.220000       12.0110           0
     16311 MEMB     123      POPC     H2R      HAL2     0.900000E-01   1.00800           0
     16312 MEMB     123      POPC     H2S      HAL2     0.900000E-01   1.00800           0
     16313 MEMB     123      POPC     C3       CTL2     0.800000E-01   12.0110           0
     16314 MEMB     123      POPC     HX       HAL2     0.900000E-01   1.00800           0
     16315 MEMB     123      POPC     HY       HAL2     0.900000E-01   1.00800           0
     16316 MEMB     123      POPC     O31      OSL     -0.490000       15.9994           0
     16317 MEMB     123      POPC     C31      CL       0.900000       12.0110           0
     16318 MEMB     123      POPC     O32      OBL     -0.630000       15.9994           0
     16319 MEMB     123      POPC     C32      CTL2    -0.220000       12.0110           0
     16320 MEMB     123      POPC     H2X      HAL2     0.900000E-01   1.00800           0
     16321 MEMB     123      POPC     H2Y      HAL2     0.900000E-01   1.00800           0
     16322 MEMB     123      POPC     C23      CTL2    -0.180000       12.0110           0
     16323 MEMB     123      POPC     H3R      HAL2     0.900000E-01   1.00800           0
     16324 MEMB     123      POPC     H3S      HAL2     0.900000E-01   1.00800           0
     16325 MEMB     123      POPC     C24      CTL2    -0.180000       12.0110           0
     16326 MEMB     123      POPC     H4R      HAL2     0.900000E-01   1.00800           0
     16327 MEMB     123      POPC     H4S      HAL2     0.900000E-01   1.00800           0
     16328 MEMB     123      POPC     C25      CTL2    -0.180000       12.0110           0
     16329 MEMB     123      POPC     H5R      HAL2     0.900000E-01   1.00800           0
     16330 MEMB     123      POPC     H5S      HAL2     0.900000E-01   1.00800           0
     16331 MEMB     123      POPC     C26      CTL2    -0.180000       12.0110           0
     16332 MEMB     123      POPC     H6R      HAL2     0.900000E-01   1.00800           0
     16333 MEMB     123      POPC     H6S      HAL2     0.900000E-01   1.00800           0
     16334 MEMB     123      POPC     C27      CTL2    -0.180000       12.0110           0
     16335 MEMB     123      POPC     H7R      HAL2     0.900000E-01   1.00800           0
     16336 MEMB     123      POPC     H7S      HAL2     0.900000E-01   1.00800           0
     16337 MEMB     123      POPC     C28      CTL2    -0.180000       12.0110           0
     16338 MEMB     123      POPC     H8R      HAL2     0.900000E-01   1.00800           0
     16339 MEMB     123      POPC     H8S      HAL2     0.900000E-01   1.00800           0
     16340 MEMB     123      POPC     C29      CEL1    -0.150000       12.0110           0
     16341 MEMB     123      POPC     H91      HEL1     0.150000       1.00800           0
     16342 MEMB     123      POPC     C210     CEL1    -0.150000       12.0110           0
     16343 MEMB     123      POPC     H101     HEL1     0.150000       1.00800           0
     16344 MEMB     123      POPC     C211     CTL2    -0.180000       12.0110           0
     16345 MEMB     123      POPC     H11R     HAL2     0.900000E-01   1.00800           0
     16346 MEMB     123      POPC     H11S     HAL2     0.900000E-01   1.00800           0
     16347 MEMB     123      POPC     C212     CTL2    -0.180000       12.0110           0
     16348 MEMB     123      POPC     H12R     HAL2     0.900000E-01   1.00800           0
     16349 MEMB     123      POPC     H12S     HAL2     0.900000E-01   1.00800           0
     16350 MEMB     123      POPC     C213     CTL2    -0.180000       12.0110           0
     16351 MEMB     123      POPC     H13R     HAL2     0.900000E-01   1.00800           0
     16352 MEMB     123      POPC     H13S     HAL2     0.900000E-01   1.00800           0
     16353 MEMB     123      POPC     C214     CTL2    -0.180000       12.0110           0
     16354 MEMB     123      POPC     H14R     HAL2     0.900000E-01   1.00800           0
     16355 MEMB     123      POPC     H14S     HAL2     0.900000E-01   1.00800           0
     16356 MEMB     123      POPC     C215     CTL2    -0.180000       12.0110           0
     16357 MEMB     123      POPC     H15R     HAL2     0.900000E-01   1.00800           0
     16358 MEMB     123      POPC     H15S     HAL2     0.900000E-01   1.00800           0
     16359 MEMB     123      POPC     C216     CTL2    -0.180000       12.0110           0
     16360 MEMB     123      POPC     H16R     HAL2     0.900000E-01   1.00800           0
     16361 MEMB     123      POPC     H16S     HAL2     0.900000E-01   1.00800           0
     16362 MEMB     123      POPC     C217     CTL2    -0.180000       12.0110           0
     16363 MEMB     123      POPC     H17R     HAL2     0.900000E-01   1.00800           0
     16364 MEMB     123      POPC     H17S     HAL2     0.900000E-01   1.00800           0
     16365 MEMB     123      POPC     C218     CTL3    -0.270000       12.0110           0
     16366 MEMB     123      POPC     H18R     HAL3     0.900000E-01   1.00800           0
     16367 MEMB     123      POPC     H18S     HAL3     0.900000E-01   1.00800           0
     16368 MEMB     123      POPC     H18T     HAL3     0.900000E-01   1.00800           0
     16369 MEMB     123      POPC     C33      CTL2    -0.180000       12.0110           0
     16370 MEMB     123      POPC     H3X      HAL2     0.900000E-01   1.00800           0
     16371 MEMB     123      POPC     H3Y      HAL2     0.900000E-01   1.00800           0
     16372 MEMB     123      POPC     C34      CTL2    -0.180000       12.0110           0
     16373 MEMB     123      POPC     H4X      HAL2     0.900000E-01   1.00800           0
     16374 MEMB     123      POPC     H4Y      HAL2     0.900000E-01   1.00800           0
     16375 MEMB     123      POPC     C35      CTL2    -0.180000       12.0110           0
     16376 MEMB     123      POPC     H5X      HAL2     0.900000E-01   1.00800           0
     16377 MEMB     123      POPC     H5Y      HAL2     0.900000E-01   1.00800           0
     16378 MEMB     123      POPC     C36      CTL2    -0.180000       12.0110           0
     16379 MEMB     123      POPC     H6X      HAL2     0.900000E-01   1.00800           0
     16380 MEMB     123      POPC     H6Y      HAL2     0.900000E-01   1.00800           0
     16381 MEMB     123      POPC     C37      CTL2    -0.180000       12.0110           0
     16382 MEMB     123      POPC     H7X      HAL2     0.900000E-01   1.00800           0
     16383 MEMB     123      POPC     H7Y      HAL2     0.900000E-01   1.00800           0
     16384 MEMB     123      POPC     C38      CTL2    -0.180000       12.0110           0
     16385 MEMB     123      POPC     H8X      HAL2     0.900000E-01   1.00800           0
     16386 MEMB     123      POPC     H8Y      HAL2     0.900000E-01   1.00800           0
     16387 MEMB     123      POPC     C39      CTL2    -0.180000       12.0110           0
     16388 MEMB     123      POPC     H9X      HAL2     0.900000E-01   1.00800           0
     16389 MEMB     123      POPC     H9Y      HAL2     0.900000E-01   1.00800           0
     16390 MEMB     123      POPC     C310     CTL2    -0.180000       12.0110           0
     16391 MEMB     123      POPC     H10X     HAL2     0.900000E-01   1.00800           0
     16392 MEMB     123      POPC     H10Y     HAL2     0.900000E-01   1.00800           0
     16393 MEMB     123      POPC     C311     CTL2    -0.180000       12.0110           0
     16394 MEMB     123      POPC     H11X     HAL2     0.900000E-01   1.00800           0
     16395 MEMB     123      POPC     H11Y     HAL2     0.900000E-01   1.00800           0
     16396 MEMB     123      POPC     C312     CTL2    -0.180000       12.0110           0
     16397 MEMB     123      POPC     H12X     HAL2     0.900000E-01   1.00800           0
     16398 MEMB     123      POPC     H12Y     HAL2     0.900000E-01   1.00800           0
     16399 MEMB     123      POPC     C313     CTL2    -0.180000       12.0110           0
     16400 MEMB     123      POPC     H13X     HAL2     0.900000E-01   1.00800           0
     16401 MEMB     123      POPC     H13Y     HAL2     0.900000E-01   1.00800           0
     16402 MEMB     123      POPC     C314     CTL2    -0.180000       12.0110           0
     16403 MEMB     123      POPC     H14X     HAL2     0.900000E-01   1.00800           0
     16404 MEMB     123      POPC     H14Y     HAL2     0.900000E-01   1.00800           0
     16405 MEMB     123      POPC     C315     CTL2    -0.180000       12.0110           0
     16406 MEMB     123      POPC     H15X     HAL2     0.900000E-01   1.00800           0
     16407 MEMB     123      POPC     H15Y     HAL2     0.900000E-01   1.00800           0
     16408 MEMB     123      POPC     C316     CTL3    -0.270000       12.0110           0
     16409 MEMB     123      POPC     H16X     HAL3     0.900000E-01   1.00800           0
     16410 MEMB     123      POPC     H16Y     HAL3     0.900000E-01   1.00800           0
     16411 MEMB     123      POPC     H16Z     HAL3     0.900000E-01   1.00800           0
     16412 MEMB     124      POPS     N        NH3L    -0.300000       14.0070           0
     16413 MEMB     124      POPS     HN1      HCL      0.330000       1.00800           0
     16414 MEMB     124      POPS     HN2      HCL      0.330000       1.00800           0
     16415 MEMB     124      POPS     HN3      HCL      0.330000       1.00800           0
     16416 MEMB     124      POPS     C12      CTL1     0.210000       12.0110           0
     16417 MEMB     124      POPS     H12A     HBL      0.100000       1.00800           0
     16418 MEMB     124      POPS     C13      CCL      0.340000       12.0110           0
     16419 MEMB     124      POPS     O13A     OCL     -0.670000       15.9994           0
     16420 MEMB     124      POPS     O13B     OCL     -0.670000       15.9994           0
     16421 MEMB     124      POPS     C11      CTL2    -0.800000E-01   12.0110           0
     16422 MEMB     124      POPS     H11A     HAL2     0.900000E-01   1.00800           0
     16423 MEMB     124      POPS     H11B     HAL2     0.900000E-01   1.00800           0
     16424 MEMB     124      POPS     P        PL        1.50000       30.9740           0
     16425 MEMB     124      POPS     O13      O2L     -0.780000       15.9994           0
     16426 MEMB     124      POPS     O14      O2L     -0.780000       15.9994           0
     16427 MEMB     124      POPS     O12      OSLP    -0.570000       15.9994           0
     16428 MEMB     124      POPS     O11      OSLP    -0.570000       15.9994           0
     16429 MEMB     124      POPS     C1       CTL2    -0.800000E-01   12.0110           0
     16430 MEMB     124      POPS     HA       HAL2     0.900000E-01   1.00800           0
     16431 MEMB     124      POPS     HB       HAL2     0.900000E-01   1.00800           0
     16432 MEMB     124      POPS     C2       CTL1     0.170000       12.0110           0
     16433 MEMB     124      POPS     HS       HAL1     0.900000E-01   1.00800           0
     16434 MEMB     124      POPS     O21      OSL     -0.490000       15.9994           0
     16435 MEMB     124      POPS     C21      CL       0.900000       12.0110           0
     16436 MEMB     124      POPS     O22      OBL     -0.630000       15.9994           0
     16437 MEMB     124      POPS     C22      CTL2    -0.220000       12.0110           0
     16438 MEMB     124      POPS     H2R      HAL2     0.900000E-01   1.00800           0
     16439 MEMB     124      POPS     H2S      HAL2     0.900000E-01   1.00800           0
     16440 MEMB     124      POPS     C3       CTL2     0.800000E-01   12.0110           0
     16441 MEMB     124      POPS     HX       HAL2     0.900000E-01   1.00800           0
     16442 MEMB     124      POPS     HY       HAL2     0.900000E-01   1.00800           0
     16443 MEMB     124      POPS     O31      OSL     -0.490000       15.9994           0
     16444 MEMB     124      POPS     C31      CL       0.900000       12.0110           0
     16445 MEMB     124      POPS     O32      OBL     -0.630000       15.9994           0
     16446 MEMB     124      POPS     C32      CTL2    -0.220000       12.0110           0
     16447 MEMB     124      POPS     H2X      HAL2     0.900000E-01   1.00800           0
     16448 MEMB     124      POPS     H2Y      HAL2     0.900000E-01   1.00800           0
     16449 MEMB     124      POPS     C23      CTL2    -0.180000       12.0110           0
     16450 MEMB     124      POPS     H3R      HAL2     0.900000E-01   1.00800           0
     16451 MEMB     124      POPS     H3S      HAL2     0.900000E-01   1.00800           0
     16452 MEMB     124      POPS     C24      CTL2    -0.180000       12.0110           0
     16453 MEMB     124      POPS     H4R      HAL2     0.900000E-01   1.00800           0
     16454 MEMB     124      POPS     H4S      HAL2     0.900000E-01   1.00800           0
     16455 MEMB     124      POPS     C25      CTL2    -0.180000       12.0110           0
     16456 MEMB     124      POPS     H5R      HAL2     0.900000E-01   1.00800           0
     16457 MEMB     124      POPS     H5S      HAL2     0.900000E-01   1.00800           0
     16458 MEMB     124      POPS     C26      CTL2    -0.180000       12.0110           0
     16459 MEMB     124      POPS     H6R      HAL2     0.900000E-01   1.00800           0
     16460 MEMB     124      POPS     H6S      HAL2     0.900000E-01   1.00800           0
     16461 MEMB     124      POPS     C27      CTL2    -0.180000       12.0110           0
     16462 MEMB     124      POPS     H7R      HAL2     0.900000E-01   1.00800           0
     16463 MEMB     124      POPS     H7S      HAL2     0.900000E-01   1.00800           0
     16464 MEMB     124      POPS     C28      CTL2    -0.180000       12.0110           0
     16465 MEMB     124      POPS     H8R      HAL2     0.900000E-01   1.00800           0
     16466 MEMB     124      POPS     H8S      HAL2     0.900000E-01   1.00800           0
     16467 MEMB     124      POPS     C29      CEL1    -0.150000       12.0110           0
     16468 MEMB     124      POPS     H91      HEL1     0.150000       1.00800           0
     16469 MEMB     124      POPS     C210     CEL1    -0.150000       12.0110           0
     16470 MEMB     124      POPS     H101     HEL1     0.150000       1.00800           0
     16471 MEMB     124      POPS     C211     CTL2    -0.180000       12.0110           0
     16472 MEMB     124      POPS     H11R     HAL2     0.900000E-01   1.00800           0
     16473 MEMB     124      POPS     H11S     HAL2     0.900000E-01   1.00800           0
     16474 MEMB     124      POPS     C212     CTL2    -0.180000       12.0110           0
     16475 MEMB     124      POPS     H12R     HAL2     0.900000E-01   1.00800           0
     16476 MEMB     124      POPS     H12S     HAL2     0.900000E-01   1.00800           0
     16477 MEMB     124      POPS     C213     CTL2    -0.180000       12.0110           0
     16478 MEMB     124      POPS     H13R     HAL2     0.900000E-01   1.00800           0
     16479 MEMB     124      POPS     H13S     HAL2     0.900000E-01   1.00800           0
     16480 MEMB     124      POPS     C214     CTL2    -0.180000       12.0110           0
     16481 MEMB     124      POPS     H14R     HAL2     0.900000E-01   1.00800           0
     16482 MEMB     124      POPS     H14S     HAL2     0.900000E-01   1.00800           0
     16483 MEMB     124      POPS     C215     CTL2    -0.180000       12.0110           0
     16484 MEMB     124      POPS     H15R     HAL2     0.900000E-01   1.00800           0
     16485 MEMB     124      POPS     H15S     HAL2     0.900000E-01   1.00800           0
     16486 MEMB     124      POPS     C216     CTL2    -0.180000       12.0110           0
     16487 MEMB     124      POPS     H16R     HAL2     0.900000E-01   1.00800           0
     16488 MEMB     124      POPS     H16S     HAL2     0.900000E-01   1.00800           0
     16489 MEMB     124      POPS     C217     CTL2    -0.180000       12.0110           0
     16490 MEMB     124      POPS     H17R     HAL2     0.900000E-01   1.00800           0
     16491 MEMB     124      POPS     H17S     HAL2     0.900000E-01   1.00800           0
     16492 MEMB     124      POPS     C218     CTL3    -0.270000       12.0110           0
     16493 MEMB     124      POPS     H18R     HAL3     0.900000E-01   1.00800           0
     16494 MEMB     124      POPS     H18S     HAL3     0.900000E-01   1.00800           0
     16495 MEMB     124      POPS     H18T     HAL3     0.900000E-01   1.00800           0
     16496 MEMB     124      POPS     C33      CTL2    -0.180000       12.0110           0
     16497 MEMB     124      POPS     H3X      HAL2     0.900000E-01   1.00800           0
     16498 MEMB     124      POPS     H3Y      HAL2     0.900000E-01   1.00800           0
     16499 MEMB     124      POPS     C34      CTL2    -0.180000       12.0110           0
     16500 MEMB     124      POPS     H4X      HAL2     0.900000E-01   1.00800           0
     16501 MEMB     124      POPS     H4Y      HAL2     0.900000E-01   1.00800           0
     16502 MEMB     124      POPS     C35      CTL2    -0.180000       12.0110           0
     16503 MEMB     124      POPS     H5X      HAL2     0.900000E-01   1.00800           0
     16504 MEMB     124      POPS     H5Y      HAL2     0.900000E-01   1.00800           0
     16505 MEMB     124      POPS     C36      CTL2    -0.180000       12.0110           0
     16506 MEMB     124      POPS     H6X      HAL2     0.900000E-01   1.00800           0
     16507 MEMB     124      POPS     H6Y      HAL2     0.900000E-01   1.00800           0
     16508 MEMB     124      POPS     C37      CTL2    -0.180000       12.0110           0
     16509 MEMB     124      POPS     H7X      HAL2     0.900000E-01   1.00800           0
     16510 MEMB     124      POPS     H7Y      HAL2     0.900000E-01   1.00800           0
     16511 MEMB     124      POPS     C38      CTL2    -0.180000       12.0110           0
     16512 MEMB     124      POPS     H8X      HAL2     0.900000E-01   1.00800           0
     16513 MEMB     124      POPS     H8Y      HAL2     0.900000E-01   1.00800           0
     16514 MEMB     124      POPS     C39      CTL2    -0.180000       12.0110           0
     16515 MEMB     124      POPS     H9X      HAL2     0.900000E-01   1.00800           0
     16516 MEMB     124      POPS     H9Y      HAL2     0.900000E-01   1.00800           0
     16517 MEMB     124      POPS     C310     CTL2    -0.180000       12.0110           0
     16518 MEMB     124      POPS     H10X     HAL2     0.900000E-01   1.00800           0
     16519 MEMB     124      POPS     H10Y     HAL2     0.900000E-01   1.00800           0
     16520 MEMB     124      POPS     C311     CTL2    -0.180000       12.0110           0
     16521 MEMB     124      POPS     H11X     HAL2     0.900000E-01   1.00800           0
     16522 MEMB     124      POPS     H11Y     HAL2     0.900000E-01   1.00800           0
     16523 MEMB     124      POPS     C312     CTL2    -0.180000       12.0110           0
     16524 MEMB     124      POPS     H12X     HAL2     0.900000E-01   1.00800           0
     16525 MEMB     124      POPS     H12Y     HAL2     0.900000E-01   1.00800           0
     16526 MEMB     124      POPS     C313     CTL2    -0.180000       12.0110           0
     16527 MEMB     124      POPS     H13X     HAL2     0.900000E-01   1.00800           0
     16528 MEMB     124      POPS     H13Y     HAL2     0.900000E-01   1.00800           0
     16529 MEMB     124      POPS     C314     CTL2    -0.180000       12.0110           0
     16530 MEMB     124      POPS     H14X     HAL2     0.900000E-01   1.00800           0
     16531 MEMB     124      POPS     H14Y     HAL2     0.900000E-01   1.00800           0
     16532 MEMB     124      POPS     C315     CTL2    -0.180000       12.0110           0
     16533 MEMB     124      POPS     H15X     HAL2     0.900000E-01   1.00800           0
     16534 MEMB     124      POPS     H15Y     HAL2     0.900000E-01   1.00800           0
     16535 MEMB     124      POPS     C316     CTL3    -0.270000       12.0110           0
     16536 MEMB     124      POPS     H16X     HAL3     0.900000E-01   1.00800           0
     16537 MEMB     124      POPS     H16Y     HAL3     0.900000E-01   1.00800           0
     16538 MEMB     124      POPS     H16Z     HAL3     0.900000E-01   1.00800           0
     16539 MEMB     125      POPC     N        NTL     -0.600000       14.0070           0
     16540 MEMB     125      POPC     C12      CTL2    -0.100000       12.0110           0
     16541 MEMB     125      POPC     H12A     HL       0.250000       1.00800           0
     16542 MEMB     125      POPC     H12B     HL       0.250000       1.00800           0
     16543 MEMB     125      POPC     C13      CTL5    -0.350000       12.0110           0
     16544 MEMB     125      POPC     H13A     HL       0.250000       1.00800           0
     16545 MEMB     125      POPC     H13B     HL       0.250000       1.00800           0
     16546 MEMB     125      POPC     H13C     HL       0.250000       1.00800           0
     16547 MEMB     125      POPC     C14      CTL5    -0.350000       12.0110           0
     16548 MEMB     125      POPC     H14A     HL       0.250000       1.00800           0
     16549 MEMB     125      POPC     H14B     HL       0.250000       1.00800           0
     16550 MEMB     125      POPC     H14C     HL       0.250000       1.00800           0
     16551 MEMB     125      POPC     C15      CTL5    -0.350000       12.0110           0
     16552 MEMB     125      POPC     H15A     HL       0.250000       1.00800           0
     16553 MEMB     125      POPC     H15B     HL       0.250000       1.00800           0
     16554 MEMB     125      POPC     H15C     HL       0.250000       1.00800           0
     16555 MEMB     125      POPC     C11      CTL2    -0.800000E-01   12.0110           0
     16556 MEMB     125      POPC     H11A     HAL2     0.900000E-01   1.00800           0
     16557 MEMB     125      POPC     H11B     HAL2     0.900000E-01   1.00800           0
     16558 MEMB     125      POPC     P        PL        1.50000       30.9740           0
     16559 MEMB     125      POPC     O13      O2L     -0.780000       15.9994           0
     16560 MEMB     125      POPC     O14      O2L     -0.780000       15.9994           0
     16561 MEMB     125      POPC     O12      OSLP    -0.570000       15.9994           0
     16562 MEMB     125      POPC     O11      OSLP    -0.570000       15.9994           0
     16563 MEMB     125      POPC     C1       CTL2    -0.800000E-01   12.0110           0
     16564 MEMB     125      POPC     HA       HAL2     0.900000E-01   1.00800           0
     16565 MEMB     125      POPC     HB       HAL2     0.900000E-01   1.00800           0
     16566 MEMB     125      POPC     C2       CTL1     0.170000       12.0110           0
     16567 MEMB     125      POPC     HS       HAL1     0.900000E-01   1.00800           0
     16568 MEMB     125      POPC     O21      OSL     -0.490000       15.9994           0
     16569 MEMB     125      POPC     C21      CL       0.900000       12.0110           0
     16570 MEMB     125      POPC     O22      OBL     -0.630000       15.9994           0
     16571 MEMB     125      POPC     C22      CTL2    -0.220000       12.0110           0
     16572 MEMB     125      POPC     H2R      HAL2     0.900000E-01   1.00800           0
     16573 MEMB     125      POPC     H2S      HAL2     0.900000E-01   1.00800           0
     16574 MEMB     125      POPC     C3       CTL2     0.800000E-01   12.0110           0
     16575 MEMB     125      POPC     HX       HAL2     0.900000E-01   1.00800           0
     16576 MEMB     125      POPC     HY       HAL2     0.900000E-01   1.00800           0
     16577 MEMB     125      POPC     O31      OSL     -0.490000       15.9994           0
     16578 MEMB     125      POPC     C31      CL       0.900000       12.0110           0
     16579 MEMB     125      POPC     O32      OBL     -0.630000       15.9994           0
     16580 MEMB     125      POPC     C32      CTL2    -0.220000       12.0110           0
     16581 MEMB     125      POPC     H2X      HAL2     0.900000E-01   1.00800           0
     16582 MEMB     125      POPC     H2Y      HAL2     0.900000E-01   1.00800           0
     16583 MEMB     125      POPC     C23      CTL2    -0.180000       12.0110           0
     16584 MEMB     125      POPC     H3R      HAL2     0.900000E-01   1.00800           0
     16585 MEMB     125      POPC     H3S      HAL2     0.900000E-01   1.00800           0
     16586 MEMB     125      POPC     C24      CTL2    -0.180000       12.0110           0
     16587 MEMB     125      POPC     H4R      HAL2     0.900000E-01   1.00800           0
     16588 MEMB     125      POPC     H4S      HAL2     0.900000E-01   1.00800           0
     16589 MEMB     125      POPC     C25      CTL2    -0.180000       12.0110           0
     16590 MEMB     125      POPC     H5R      HAL2     0.900000E-01   1.00800           0
     16591 MEMB     125      POPC     H5S      HAL2     0.900000E-01   1.00800           0
     16592 MEMB     125      POPC     C26      CTL2    -0.180000       12.0110           0
     16593 MEMB     125      POPC     H6R      HAL2     0.900000E-01   1.00800           0
     16594 MEMB     125      POPC     H6S      HAL2     0.900000E-01   1.00800           0
     16595 MEMB     125      POPC     C27      CTL2    -0.180000       12.0110           0
     16596 MEMB     125      POPC     H7R      HAL2     0.900000E-01   1.00800           0
     16597 MEMB     125      POPC     H7S      HAL2     0.900000E-01   1.00800           0
     16598 MEMB     125      POPC     C28      CTL2    -0.180000       12.0110           0
     16599 MEMB     125      POPC     H8R      HAL2     0.900000E-01   1.00800           0
     16600 MEMB     125      POPC     H8S      HAL2     0.900000E-01   1.00800           0
     16601 MEMB     125      POPC     C29      CEL1    -0.150000       12.0110           0
     16602 MEMB     125      POPC     H91      HEL1     0.150000       1.00800           0
     16603 MEMB     125      POPC     C210     CEL1    -0.150000       12.0110           0
     16604 MEMB     125      POPC     H101     HEL1     0.150000       1.00800           0
     16605 MEMB     125      POPC     C211     CTL2    -0.180000       12.0110           0
     16606 MEMB     125      POPC     H11R     HAL2     0.900000E-01   1.00800           0
     16607 MEMB     125      POPC     H11S     HAL2     0.900000E-01   1.00800           0
     16608 MEMB     125      POPC     C212     CTL2    -0.180000       12.0110           0
     16609 MEMB     125      POPC     H12R     HAL2     0.900000E-01   1.00800           0
     16610 MEMB     125      POPC     H12S     HAL2     0.900000E-01   1.00800           0
     16611 MEMB     125      POPC     C213     CTL2    -0.180000       12.0110           0
     16612 MEMB     125      POPC     H13R     HAL2     0.900000E-01   1.00800           0
     16613 MEMB     125      POPC     H13S     HAL2     0.900000E-01   1.00800           0
     16614 MEMB     125      POPC     C214     CTL2    -0.180000       12.0110           0
     16615 MEMB     125      POPC     H14R     HAL2     0.900000E-01   1.00800           0
     16616 MEMB     125      POPC     H14S     HAL2     0.900000E-01   1.00800           0
     16617 MEMB     125      POPC     C215     CTL2    -0.180000       12.0110           0
     16618 MEMB     125      POPC     H15R     HAL2     0.900000E-01   1.00800           0
     16619 MEMB     125      POPC     H15S     HAL2     0.900000E-01   1.00800           0
     16620 MEMB     125      POPC     C216     CTL2    -0.180000       12.0110           0
     16621 MEMB     125      POPC     H16R     HAL2     0.900000E-01   1.00800           0
     16622 MEMB     125      POPC     H16S     HAL2     0.900000E-01   1.00800           0
     16623 MEMB     125      POPC     C217     CTL2    -0.180000       12.0110           0
     16624 MEMB     125      POPC     H17R     HAL2     0.900000E-01   1.00800           0
     16625 MEMB     125      POPC     H17S     HAL2     0.900000E-01   1.00800           0
     16626 MEMB     125      POPC     C218     CTL3    -0.270000       12.0110           0
     16627 MEMB     125      POPC     H18R     HAL3     0.900000E-01   1.00800           0
     16628 MEMB     125      POPC     H18S     HAL3     0.900000E-01   1.00800           0
     16629 MEMB     125      POPC     H18T     HAL3     0.900000E-01   1.00800           0
     16630 MEMB     125      POPC     C33      CTL2    -0.180000       12.0110           0
     16631 MEMB     125      POPC     H3X      HAL2     0.900000E-01   1.00800           0
     16632 MEMB     125      POPC     H3Y      HAL2     0.900000E-01   1.00800           0
     16633 MEMB     125      POPC     C34      CTL2    -0.180000       12.0110           0
     16634 MEMB     125      POPC     H4X      HAL2     0.900000E-01   1.00800           0
     16635 MEMB     125      POPC     H4Y      HAL2     0.900000E-01   1.00800           0
     16636 MEMB     125      POPC     C35      CTL2    -0.180000       12.0110           0
     16637 MEMB     125      POPC     H5X      HAL2     0.900000E-01   1.00800           0
     16638 MEMB     125      POPC     H5Y      HAL2     0.900000E-01   1.00800           0
     16639 MEMB     125      POPC     C36      CTL2    -0.180000       12.0110           0
     16640 MEMB     125      POPC     H6X      HAL2     0.900000E-01   1.00800           0
     16641 MEMB     125      POPC     H6Y      HAL2     0.900000E-01   1.00800           0
     16642 MEMB     125      POPC     C37      CTL2    -0.180000       12.0110           0
     16643 MEMB     125      POPC     H7X      HAL2     0.900000E-01   1.00800           0
     16644 MEMB     125      POPC     H7Y      HAL2     0.900000E-01   1.00800           0
     16645 MEMB     125      POPC     C38      CTL2    -0.180000       12.0110           0
     16646 MEMB     125      POPC     H8X      HAL2     0.900000E-01   1.00800           0
     16647 MEMB     125      POPC     H8Y      HAL2     0.900000E-01   1.00800           0
     16648 MEMB     125      POPC     C39      CTL2    -0.180000       12.0110           0
     16649 MEMB     125      POPC     H9X      HAL2     0.900000E-01   1.00800           0
     16650 MEMB     125      POPC     H9Y      HAL2     0.900000E-01   1.00800           0
     16651 MEMB     125      POPC     C310     CTL2    -0.180000       12.0110           0
     16652 MEMB     125      POPC     H10X     HAL2     0.900000E-01   1.00800           0
     16653 MEMB     125      POPC     H10Y     HAL2     0.900000E-01   1.00800           0
     16654 MEMB     125      POPC     C311     CTL2    -0.180000       12.0110           0
     16655 MEMB     125      POPC     H11X     HAL2     0.900000E-01   1.00800           0
     16656 MEMB     125      POPC     H11Y     HAL2     0.900000E-01   1.00800           0
     16657 MEMB     125      POPC     C312     CTL2    -0.180000       12.0110           0
     16658 MEMB     125      POPC     H12X     HAL2     0.900000E-01   1.00800           0
     16659 MEMB     125      POPC     H12Y     HAL2     0.900000E-01   1.00800           0
     16660 MEMB     125      POPC     C313     CTL2    -0.180000       12.0110           0
     16661 MEMB     125      POPC     H13X     HAL2     0.900000E-01   1.00800           0
     16662 MEMB     125      POPC     H13Y     HAL2     0.900000E-01   1.00800           0
     16663 MEMB     125      POPC     C314     CTL2    -0.180000       12.0110           0
     16664 MEMB     125      POPC     H14X     HAL2     0.900000E-01   1.00800           0
     16665 MEMB     125      POPC     H14Y     HAL2     0.900000E-01   1.00800           0
     16666 MEMB     125      POPC     C315     CTL2    -0.180000       12.0110           0
     16667 MEMB     125      POPC     H15X     HAL2     0.900000E-01   1.00800           0
     16668 MEMB     125      POPC     H15Y     HAL2     0.900000E-01   1.00800           0
     16669 MEMB     125      POPC     C316     CTL3    -0.270000       12.0110           0
     16670 MEMB     125      POPC     H16X     HAL3     0.900000E-01   1.00800           0
     16671 MEMB     125      POPC     H16Y     HAL3     0.900000E-01   1.00800           0
     16672 MEMB     125      POPC     H16Z     HAL3     0.900000E-01   1.00800           0
     16673 MEMB     126      POPC     N        NTL     -0.600000       14.0070           0
     16674 MEMB     126      POPC     C12      CTL2    -0.100000       12.0110           0
     16675 MEMB     126      POPC     H12A     HL       0.250000       1.00800           0
     16676 MEMB     126      POPC     H12B     HL       0.250000       1.00800           0
     16677 MEMB     126      POPC     C13      CTL5    -0.350000       12.0110           0
     16678 MEMB     126      POPC     H13A     HL       0.250000       1.00800           0
     16679 MEMB     126      POPC     H13B     HL       0.250000       1.00800           0
     16680 MEMB     126      POPC     H13C     HL       0.250000       1.00800           0
     16681 MEMB     126      POPC     C14      CTL5    -0.350000       12.0110           0
     16682 MEMB     126      POPC     H14A     HL       0.250000       1.00800           0
     16683 MEMB     126      POPC     H14B     HL       0.250000       1.00800           0
     16684 MEMB     126      POPC     H14C     HL       0.250000       1.00800           0
     16685 MEMB     126      POPC     C15      CTL5    -0.350000       12.0110           0
     16686 MEMB     126      POPC     H15A     HL       0.250000       1.00800           0
     16687 MEMB     126      POPC     H15B     HL       0.250000       1.00800           0
     16688 MEMB     126      POPC     H15C     HL       0.250000       1.00800           0
     16689 MEMB     126      POPC     C11      CTL2    -0.800000E-01   12.0110           0
     16690 MEMB     126      POPC     H11A     HAL2     0.900000E-01   1.00800           0
     16691 MEMB     126      POPC     H11B     HAL2     0.900000E-01   1.00800           0
     16692 MEMB     126      POPC     P        PL        1.50000       30.9740           0
     16693 MEMB     126      POPC     O13      O2L     -0.780000       15.9994           0
     16694 MEMB     126      POPC     O14      O2L     -0.780000       15.9994           0
     16695 MEMB     126      POPC     O12      OSLP    -0.570000       15.9994           0
     16696 MEMB     126      POPC     O11      OSLP    -0.570000       15.9994           0
     16697 MEMB     126      POPC     C1       CTL2    -0.800000E-01   12.0110           0
     16698 MEMB     126      POPC     HA       HAL2     0.900000E-01   1.00800           0
     16699 MEMB     126      POPC     HB       HAL2     0.900000E-01   1.00800           0
     16700 MEMB     126      POPC     C2       CTL1     0.170000       12.0110           0
     16701 MEMB     126      POPC     HS       HAL1     0.900000E-01   1.00800           0
     16702 MEMB     126      POPC     O21      OSL     -0.490000       15.9994           0
     16703 MEMB     126      POPC     C21      CL       0.900000       12.0110           0
     16704 MEMB     126      POPC     O22      OBL     -0.630000       15.9994           0
     16705 MEMB     126      POPC     C22      CTL2    -0.220000       12.0110           0
     16706 MEMB     126      POPC     H2R      HAL2     0.900000E-01   1.00800           0
     16707 MEMB     126      POPC     H2S      HAL2     0.900000E-01   1.00800           0
     16708 MEMB     126      POPC     C3       CTL2     0.800000E-01   12.0110           0
     16709 MEMB     126      POPC     HX       HAL2     0.900000E-01   1.00800           0
     16710 MEMB     126      POPC     HY       HAL2     0.900000E-01   1.00800           0
     16711 MEMB     126      POPC     O31      OSL     -0.490000       15.9994           0
     16712 MEMB     126      POPC     C31      CL       0.900000       12.0110           0
     16713 MEMB     126      POPC     O32      OBL     -0.630000       15.9994           0
     16714 MEMB     126      POPC     C32      CTL2    -0.220000       12.0110           0
     16715 MEMB     126      POPC     H2X      HAL2     0.900000E-01   1.00800           0
     16716 MEMB     126      POPC     H2Y      HAL2     0.900000E-01   1.00800           0
     16717 MEMB     126      POPC     C23      CTL2    -0.180000       12.0110           0
     16718 MEMB     126      POPC     H3R      HAL2     0.900000E-01   1.00800           0
     16719 MEMB     126      POPC     H3S      HAL2     0.900000E-01   1.00800           0
     16720 MEMB     126      POPC     C24      CTL2    -0.180000       12.0110           0
     16721 MEMB     126      POPC     H4R      HAL2     0.900000E-01   1.00800           0
     16722 MEMB     126      POPC     H4S      HAL2     0.900000E-01   1.00800           0
     16723 MEMB     126      POPC     C25      CTL2    -0.180000       12.0110           0
     16724 MEMB     126      POPC     H5R      HAL2     0.900000E-01   1.00800           0
     16725 MEMB     126      POPC     H5S      HAL2     0.900000E-01   1.00800           0
     16726 MEMB     126      POPC     C26      CTL2    -0.180000       12.0110           0
     16727 MEMB     126      POPC     H6R      HAL2     0.900000E-01   1.00800           0
     16728 MEMB     126      POPC     H6S      HAL2     0.900000E-01   1.00800           0
     16729 MEMB     126      POPC     C27      CTL2    -0.180000       12.0110           0
     16730 MEMB     126      POPC     H7R      HAL2     0.900000E-01   1.00800           0
     16731 MEMB     126      POPC     H7S      HAL2     0.900000E-01   1.00800           0
     16732 MEMB     126      POPC     C28      CTL2    -0.180000       12.0110           0
     16733 MEMB     126      POPC     H8R      HAL2     0.900000E-01   1.00800           0
     16734 MEMB     126      POPC     H8S      HAL2     0.900000E-01   1.00800           0
     16735 MEMB     126      POPC     C29      CEL1    -0.150000       12.0110           0
     16736 MEMB     126      POPC     H91      HEL1     0.150000       1.00800           0
     16737 MEMB     126      POPC     C210     CEL1    -0.150000       12.0110           0
     16738 MEMB     126      POPC     H101     HEL1     0.150000       1.00800           0
     16739 MEMB     126      POPC     C211     CTL2    -0.180000       12.0110           0
     16740 MEMB     126      POPC     H11R     HAL2     0.900000E-01   1.00800           0
     16741 MEMB     126      POPC     H11S     HAL2     0.900000E-01   1.00800           0
     16742 MEMB     126      POPC     C212     CTL2    -0.180000       12.0110           0
     16743 MEMB     126      POPC     H12R     HAL2     0.900000E-01   1.00800           0
     16744 MEMB     126      POPC     H12S     HAL2     0.900000E-01   1.00800           0
     16745 MEMB     126      POPC     C213     CTL2    -0.180000       12.0110           0
     16746 MEMB     126      POPC     H13R     HAL2     0.900000E-01   1.00800           0
     16747 MEMB     126      POPC     H13S     HAL2     0.900000E-01   1.00800           0
     16748 MEMB     126      POPC     C214     CTL2    -0.180000       12.0110           0
     16749 MEMB     126      POPC     H14R     HAL2     0.900000E-01   1.00800           0
     16750 MEMB     126      POPC     H14S     HAL2     0.900000E-01   1.00800           0
     16751 MEMB     126      POPC     C215     CTL2    -0.180000       12.0110           0
     16752 MEMB     126      POPC     H15R     HAL2     0.900000E-01   1.00800           0
     16753 MEMB     126      POPC     H15S     HAL2     0.900000E-01   1.00800           0
     16754 MEMB     126      POPC     C216     CTL2    -0.180000       12.0110           0
     16755 MEMB     126      POPC     H16R     HAL2     0.900000E-01   1.00800           0
     16756 MEMB     126      POPC     H16S     HAL2     0.900000E-01   1.00800           0
     16757 MEMB     126      POPC     C217     CTL2    -0.180000       12.0110           0
     16758 MEMB     126      POPC     H17R     HAL2     0.900000E-01   1.00800           0
     16759 MEMB     126      POPC     H17S     HAL2     0.900000E-01   1.00800           0
     16760 MEMB     126      POPC     C218     CTL3    -0.270000       12.0110           0
     16761 MEMB     126      POPC     H18R     HAL3     0.900000E-01   1.00800           0
     16762 MEMB     126      POPC     H18S     HAL3     0.900000E-01   1.00800           0
     16763 MEMB     126      POPC     H18T     HAL3     0.900000E-01   1.00800           0
     16764 MEMB     126      POPC     C33      CTL2    -0.180000       12.0110           0
     16765 MEMB     126      POPC     H3X      HAL2     0.900000E-01   1.00800           0
     16766 MEMB     126      POPC     H3Y      HAL2     0.900000E-01   1.00800           0
     16767 MEMB     126      POPC     C34      CTL2    -0.180000       12.0110           0
     16768 MEMB     126      POPC     H4X      HAL2     0.900000E-01   1.00800           0
     16769 MEMB     126      POPC     H4Y      HAL2     0.900000E-01   1.00800           0
     16770 MEMB     126      POPC     C35      CTL2    -0.180000       12.0110           0
     16771 MEMB     126      POPC     H5X      HAL2     0.900000E-01   1.00800           0
     16772 MEMB     126      POPC     H5Y      HAL2     0.900000E-01   1.00800           0
     16773 MEMB     126      POPC     C36      CTL2    -0.180000       12.0110           0
     16774 MEMB     126      POPC     H6X      HAL2     0.900000E-01   1.00800           0
     16775 MEMB     126      POPC     H6Y      HAL2     0.900000E-01   1.00800           0
     16776 MEMB     126      POPC     C37      CTL2    -0.180000       12.0110           0
     16777 MEMB     126      POPC     H7X      HAL2     0.900000E-01   1.00800           0
     16778 MEMB     126      POPC     H7Y      HAL2     0.900000E-01   1.00800           0
     16779 MEMB     126      POPC     C38      CTL2    -0.180000       12.0110           0
     16780 MEMB     126      POPC     H8X      HAL2     0.900000E-01   1.00800           0
     16781 MEMB     126      POPC     H8Y      HAL2     0.900000E-01   1.00800           0
     16782 MEMB     126      POPC     C39      CTL2    -0.180000       12.0110           0
     16783 MEMB     126      POPC     H9X      HAL2     0.900000E-01   1.00800           0
     16784 MEMB     126      POPC     H9Y      HAL2     0.900000E-01   1.00800           0
     16785 MEMB     126      POPC     C310     CTL2    -0.180000       12.0110           0
     16786 MEMB     126      POPC     H10X     HAL2     0.900000E-01   1.00800           0
     16787 MEMB     126      POPC     H10Y     HAL2     0.900000E-01   1.00800           0
     16788 MEMB     126      POPC     C311     CTL2    -0.180000       12.0110           0
     16789 MEMB     126      POPC     H11X     HAL2     0.900000E-01   1.00800           0
     16790 MEMB     126      POPC     H11Y     HAL2     0.900000E-01   1.00800           0
     16791 MEMB     126      POPC     C312     CTL2    -0.180000       12.0110           0
     16792 MEMB     126      POPC     H12X     HAL2     0.900000E-01   1.00800           0
     16793 MEMB     126      POPC     H12Y     HAL2     0.900000E-01   1.00800           0
     16794 MEMB     126      POPC     C313     CTL2    -0.180000       12.0110           0
     16795 MEMB     126      POPC     H13X     HAL2     0.900000E-01   1.00800           0
     16796 MEMB     126      POPC     H13Y     HAL2     0.900000E-01   1.00800           0
     16797 MEMB     126      POPC     C314     CTL2    -0.180000       12.0110           0
     16798 MEMB     126      POPC     H14X     HAL2     0.900000E-01   1.00800           0
     16799 MEMB     126      POPC     H14Y     HAL2     0.900000E-01   1.00800           0
     16800 MEMB     126      POPC     C315     CTL2    -0.180000       12.0110           0
     16801 MEMB     126      POPC     H15X     HAL2     0.900000E-01   1.00800           0
     16802 MEMB     126      POPC     H15Y     HAL2     0.900000E-01   1.00800           0
     16803 MEMB     126      POPC     C316     CTL3    -0.270000       12.0110           0
     16804 MEMB     126      POPC     H16X     HAL3     0.900000E-01   1.00800           0
     16805 MEMB     126      POPC     H16Y     HAL3     0.900000E-01   1.00800           0
     16806 MEMB     126      POPC     H16Z     HAL3     0.900000E-01   1.00800           0
     16807 MEMB     127      POPC     N        NTL     -0.600000       14.0070           0
     16808 MEMB     127      POPC     C12      CTL2    -0.100000       12.0110           0
     16809 MEMB     127      POPC     H12A     HL       0.250000       1.00800           0
     16810 MEMB     127      POPC     H12B     HL       0.250000       1.00800           0
     16811 MEMB     127      POPC     C13      CTL5    -0.350000       12.0110           0
     16812 MEMB     127      POPC     H13A     HL       0.250000       1.00800           0
     16813 MEMB     127      POPC     H13B     HL       0.250000       1.00800           0
     16814 MEMB     127      POPC     H13C     HL       0.250000       1.00800           0
     16815 MEMB     127      POPC     C14      CTL5    -0.350000       12.0110           0
     16816 MEMB     127      POPC     H14A     HL       0.250000       1.00800           0
     16817 MEMB     127      POPC     H14B     HL       0.250000       1.00800           0
     16818 MEMB     127      POPC     H14C     HL       0.250000       1.00800           0
     16819 MEMB     127      POPC     C15      CTL5    -0.350000       12.0110           0
     16820 MEMB     127      POPC     H15A     HL       0.250000       1.00800           0
     16821 MEMB     127      POPC     H15B     HL       0.250000       1.00800           0
     16822 MEMB     127      POPC     H15C     HL       0.250000       1.00800           0
     16823 MEMB     127      POPC     C11      CTL2    -0.800000E-01   12.0110           0
     16824 MEMB     127      POPC     H11A     HAL2     0.900000E-01   1.00800           0
     16825 MEMB     127      POPC     H11B     HAL2     0.900000E-01   1.00800           0
     16826 MEMB     127      POPC     P        PL        1.50000       30.9740           0
     16827 MEMB     127      POPC     O13      O2L     -0.780000       15.9994           0
     16828 MEMB     127      POPC     O14      O2L     -0.780000       15.9994           0
     16829 MEMB     127      POPC     O12      OSLP    -0.570000       15.9994           0
     16830 MEMB     127      POPC     O11      OSLP    -0.570000       15.9994           0
     16831 MEMB     127      POPC     C1       CTL2    -0.800000E-01   12.0110           0
     16832 MEMB     127      POPC     HA       HAL2     0.900000E-01   1.00800           0
     16833 MEMB     127      POPC     HB       HAL2     0.900000E-01   1.00800           0
     16834 MEMB     127      POPC     C2       CTL1     0.170000       12.0110           0
     16835 MEMB     127      POPC     HS       HAL1     0.900000E-01   1.00800           0
     16836 MEMB     127      POPC     O21      OSL     -0.490000       15.9994           0
     16837 MEMB     127      POPC     C21      CL       0.900000       12.0110           0
     16838 MEMB     127      POPC     O22      OBL     -0.630000       15.9994           0
     16839 MEMB     127      POPC     C22      CTL2    -0.220000       12.0110           0
     16840 MEMB     127      POPC     H2R      HAL2     0.900000E-01   1.00800           0
     16841 MEMB     127      POPC     H2S      HAL2     0.900000E-01   1.00800           0
     16842 MEMB     127      POPC     C3       CTL2     0.800000E-01   12.0110           0
     16843 MEMB     127      POPC     HX       HAL2     0.900000E-01   1.00800           0
     16844 MEMB     127      POPC     HY       HAL2     0.900000E-01   1.00800           0
     16845 MEMB     127      POPC     O31      OSL     -0.490000       15.9994           0
     16846 MEMB     127      POPC     C31      CL       0.900000       12.0110           0
     16847 MEMB     127      POPC     O32      OBL     -0.630000       15.9994           0
     16848 MEMB     127      POPC     C32      CTL2    -0.220000       12.0110           0
     16849 MEMB     127      POPC     H2X      HAL2     0.900000E-01   1.00800           0
     16850 MEMB     127      POPC     H2Y      HAL2     0.900000E-01   1.00800           0
     16851 MEMB     127      POPC     C23      CTL2    -0.180000       12.0110           0
     16852 MEMB     127      POPC     H3R      HAL2     0.900000E-01   1.00800           0
     16853 MEMB     127      POPC     H3S      HAL2     0.900000E-01   1.00800           0
     16854 MEMB     127      POPC     C24      CTL2    -0.180000       12.0110           0
     16855 MEMB     127      POPC     H4R      HAL2     0.900000E-01   1.00800           0
     16856 MEMB     127      POPC     H4S      HAL2     0.900000E-01   1.00800           0
     16857 MEMB     127      POPC     C25      CTL2    -0.180000       12.0110           0
     16858 MEMB     127      POPC     H5R      HAL2     0.900000E-01   1.00800           0
     16859 MEMB     127      POPC     H5S      HAL2     0.900000E-01   1.00800           0
     16860 MEMB     127      POPC     C26      CTL2    -0.180000       12.0110           0
     16861 MEMB     127      POPC     H6R      HAL2     0.900000E-01   1.00800           0
     16862 MEMB     127      POPC     H6S      HAL2     0.900000E-01   1.00800           0
     16863 MEMB     127      POPC     C27      CTL2    -0.180000       12.0110           0
     16864 MEMB     127      POPC     H7R      HAL2     0.900000E-01   1.00800           0
     16865 MEMB     127      POPC     H7S      HAL2     0.900000E-01   1.00800           0
     16866 MEMB     127      POPC     C28      CTL2    -0.180000       12.0110           0
     16867 MEMB     127      POPC     H8R      HAL2     0.900000E-01   1.00800           0
     16868 MEMB     127      POPC     H8S      HAL2     0.900000E-01   1.00800           0
     16869 MEMB     127      POPC     C29      CEL1    -0.150000       12.0110           0
     16870 MEMB     127      POPC     H91      HEL1     0.150000       1.00800           0
     16871 MEMB     127      POPC     C210     CEL1    -0.150000       12.0110           0
     16872 MEMB     127      POPC     H101     HEL1     0.150000       1.00800           0
     16873 MEMB     127      POPC     C211     CTL2    -0.180000       12.0110           0
     16874 MEMB     127      POPC     H11R     HAL2     0.900000E-01   1.00800           0
     16875 MEMB     127      POPC     H11S     HAL2     0.900000E-01   1.00800           0
     16876 MEMB     127      POPC     C212     CTL2    -0.180000       12.0110           0
     16877 MEMB     127      POPC     H12R     HAL2     0.900000E-01   1.00800           0
     16878 MEMB     127      POPC     H12S     HAL2     0.900000E-01   1.00800           0
     16879 MEMB     127      POPC     C213     CTL2    -0.180000       12.0110           0
     16880 MEMB     127      POPC     H13R     HAL2     0.900000E-01   1.00800           0
     16881 MEMB     127      POPC     H13S     HAL2     0.900000E-01   1.00800           0
     16882 MEMB     127      POPC     C214     CTL2    -0.180000       12.0110           0
     16883 MEMB     127      POPC     H14R     HAL2     0.900000E-01   1.00800           0
     16884 MEMB     127      POPC     H14S     HAL2     0.900000E-01   1.00800           0
     16885 MEMB     127      POPC     C215     CTL2    -0.180000       12.0110           0
     16886 MEMB     127      POPC     H15R     HAL2     0.900000E-01   1.00800           0
     16887 MEMB     127      POPC     H15S     HAL2     0.900000E-01   1.00800           0
     16888 MEMB     127      POPC     C216     CTL2    -0.180000       12.0110           0
     16889 MEMB     127      POPC     H16R     HAL2     0.900000E-01   1.00800           0
     16890 MEMB     127      POPC     H16S     HAL2     0.900000E-01   1.00800           0
     16891 MEMB     127      POPC     C217     CTL2    -0.180000       12.0110           0
     16892 MEMB     127      POPC     H17R     HAL2     0.900000E-01   1.00800           0
     16893 MEMB     127      POPC     H17S     HAL2     0.900000E-01   1.00800           0
     16894 MEMB     127      POPC     C218     CTL3    -0.270000       12.0110           0
     16895 MEMB     127      POPC     H18R     HAL3     0.900000E-01   1.00800           0
     16896 MEMB     127      POPC     H18S     HAL3     0.900000E-01   1.00800           0
     16897 MEMB     127      POPC     H18T     HAL3     0.900000E-01   1.00800           0
     16898 MEMB     127      POPC     C33      CTL2    -0.180000       12.0110           0
     16899 MEMB     127      POPC     H3X      HAL2     0.900000E-01   1.00800           0
     16900 MEMB     127      POPC     H3Y      HAL2     0.900000E-01   1.00800           0
     16901 MEMB     127      POPC     C34      CTL2    -0.180000       12.0110           0
     16902 MEMB     127      POPC     H4X      HAL2     0.900000E-01   1.00800           0
     16903 MEMB     127      POPC     H4Y      HAL2     0.900000E-01   1.00800           0
     16904 MEMB     127      POPC     C35      CTL2    -0.180000       12.0110           0
     16905 MEMB     127      POPC     H5X      HAL2     0.900000E-01   1.00800           0
     16906 MEMB     127      POPC     H5Y      HAL2     0.900000E-01   1.00800           0
     16907 MEMB     127      POPC     C36      CTL2    -0.180000       12.0110           0
     16908 MEMB     127      POPC     H6X      HAL2     0.900000E-01   1.00800           0
     16909 MEMB     127      POPC     H6Y      HAL2     0.900000E-01   1.00800           0
     16910 MEMB     127      POPC     C37      CTL2    -0.180000       12.0110           0
     16911 MEMB     127      POPC     H7X      HAL2     0.900000E-01   1.00800           0
     16912 MEMB     127      POPC     H7Y      HAL2     0.900000E-01   1.00800           0
     16913 MEMB     127      POPC     C38      CTL2    -0.180000       12.0110           0
     16914 MEMB     127      POPC     H8X      HAL2     0.900000E-01   1.00800           0
     16915 MEMB     127      POPC     H8Y      HAL2     0.900000E-01   1.00800           0
     16916 MEMB     127      POPC     C39      CTL2    -0.180000       12.0110           0
     16917 MEMB     127      POPC     H9X      HAL2     0.900000E-01   1.00800           0
     16918 MEMB     127      POPC     H9Y      HAL2     0.900000E-01   1.00800           0
     16919 MEMB     127      POPC     C310     CTL2    -0.180000       12.0110           0
     16920 MEMB     127      POPC     H10X     HAL2     0.900000E-01   1.00800           0
     16921 MEMB     127      POPC     H10Y     HAL2     0.900000E-01   1.00800           0
     16922 MEMB     127      POPC     C311     CTL2    -0.180000       12.0110           0
     16923 MEMB     127      POPC     H11X     HAL2     0.900000E-01   1.00800           0
     16924 MEMB     127      POPC     H11Y     HAL2     0.900000E-01   1.00800           0
     16925 MEMB     127      POPC     C312     CTL2    -0.180000       12.0110           0
     16926 MEMB     127      POPC     H12X     HAL2     0.900000E-01   1.00800           0
     16927 MEMB     127      POPC     H12Y     HAL2     0.900000E-01   1.00800           0
     16928 MEMB     127      POPC     C313     CTL2    -0.180000       12.0110           0
     16929 MEMB     127      POPC     H13X     HAL2     0.900000E-01   1.00800           0
     16930 MEMB     127      POPC     H13Y     HAL2     0.900000E-01   1.00800           0
     16931 MEMB     127      POPC     C314     CTL2    -0.180000       12.0110           0
     16932 MEMB     127      POPC     H14X     HAL2     0.900000E-01   1.00800           0
     16933 MEMB     127      POPC     H14Y     HAL2     0.900000E-01   1.00800           0
     16934 MEMB     127      POPC     C315     CTL2    -0.180000       12.0110           0
     16935 MEMB     127      POPC     H15X     HAL2     0.900000E-01   1.00800           0
     16936 MEMB     127      POPC     H15Y     HAL2     0.900000E-01   1.00800           0
     16937 MEMB     127      POPC     C316     CTL3    -0.270000       12.0110           0
     16938 MEMB     127      POPC     H16X     HAL3     0.900000E-01   1.00800           0
     16939 MEMB     127      POPC     H16Y     HAL3     0.900000E-01   1.00800           0
     16940 MEMB     127      POPC     H16Z     HAL3     0.900000E-01   1.00800           0
     16941 MEMB     128      POPS     N        NH3L    -0.300000       14.0070           0
     16942 MEMB     128      POPS     HN1      HCL      0.330000       1.00800           0
     16943 MEMB     128      POPS     HN2      HCL      0.330000       1.00800           0
     16944 MEMB     128      POPS     HN3      HCL      0.330000       1.00800           0
     16945 MEMB     128      POPS     C12      CTL1     0.210000       12.0110           0
     16946 MEMB     128      POPS     H12A     HBL      0.100000       1.00800           0
     16947 MEMB     128      POPS     C13      CCL      0.340000       12.0110           0
     16948 MEMB     128      POPS     O13A     OCL     -0.670000       15.9994           0
     16949 MEMB     128      POPS     O13B     OCL     -0.670000       15.9994           0
     16950 MEMB     128      POPS     C11      CTL2    -0.800000E-01   12.0110           0
     16951 MEMB     128      POPS     H11A     HAL2     0.900000E-01   1.00800           0
     16952 MEMB     128      POPS     H11B     HAL2     0.900000E-01   1.00800           0
     16953 MEMB     128      POPS     P        PL        1.50000       30.9740           0
     16954 MEMB     128      POPS     O13      O2L     -0.780000       15.9994           0
     16955 MEMB     128      POPS     O14      O2L     -0.780000       15.9994           0
     16956 MEMB     128      POPS     O12      OSLP    -0.570000       15.9994           0
     16957 MEMB     128      POPS     O11      OSLP    -0.570000       15.9994           0
     16958 MEMB     128      POPS     C1       CTL2    -0.800000E-01   12.0110           0
     16959 MEMB     128      POPS     HA       HAL2     0.900000E-01   1.00800           0
     16960 MEMB     128      POPS     HB       HAL2     0.900000E-01   1.00800           0
     16961 MEMB     128      POPS     C2       CTL1     0.170000       12.0110           0
     16962 MEMB     128      POPS     HS       HAL1     0.900000E-01   1.00800           0
     16963 MEMB     128      POPS     O21      OSL     -0.490000       15.9994           0
     16964 MEMB     128      POPS     C21      CL       0.900000       12.0110           0
     16965 MEMB     128      POPS     O22      OBL     -0.630000       15.9994           0
     16966 MEMB     128      POPS     C22      CTL2    -0.220000       12.0110           0
     16967 MEMB     128      POPS     H2R      HAL2     0.900000E-01   1.00800           0
     16968 MEMB     128      POPS     H2S      HAL2     0.900000E-01   1.00800           0
     16969 MEMB     128      POPS     C3       CTL2     0.800000E-01   12.0110           0
     16970 MEMB     128      POPS     HX       HAL2     0.900000E-01   1.00800           0
     16971 MEMB     128      POPS     HY       HAL2     0.900000E-01   1.00800           0
     16972 MEMB     128      POPS     O31      OSL     -0.490000       15.9994           0
     16973 MEMB     128      POPS     C31      CL       0.900000       12.0110           0
     16974 MEMB     128      POPS     O32      OBL     -0.630000       15.9994           0
     16975 MEMB     128      POPS     C32      CTL2    -0.220000       12.0110           0
     16976 MEMB     128      POPS     H2X      HAL2     0.900000E-01   1.00800           0
     16977 MEMB     128      POPS     H2Y      HAL2     0.900000E-01   1.00800           0
     16978 MEMB     128      POPS     C23      CTL2    -0.180000       12.0110           0
     16979 MEMB     128      POPS     H3R      HAL2     0.900000E-01   1.00800           0
     16980 MEMB     128      POPS     H3S      HAL2     0.900000E-01   1.00800           0
     16981 MEMB     128      POPS     C24      CTL2    -0.180000       12.0110           0
     16982 MEMB     128      POPS     H4R      HAL2     0.900000E-01   1.00800           0
     16983 MEMB     128      POPS     H4S      HAL2     0.900000E-01   1.00800           0
     16984 MEMB     128      POPS     C25      CTL2    -0.180000       12.0110           0
     16985 MEMB     128      POPS     H5R      HAL2     0.900000E-01   1.00800           0
     16986 MEMB     128      POPS     H5S      HAL2     0.900000E-01   1.00800           0
     16987 MEMB     128      POPS     C26      CTL2    -0.180000       12.0110           0
     16988 MEMB     128      POPS     H6R      HAL2     0.900000E-01   1.00800           0
     16989 MEMB     128      POPS     H6S      HAL2     0.900000E-01   1.00800           0
     16990 MEMB     128      POPS     C27      CTL2    -0.180000       12.0110           0
     16991 MEMB     128      POPS     H7R      HAL2     0.900000E-01   1.00800           0
     16992 MEMB     128      POPS     H7S      HAL2     0.900000E-01   1.00800           0
     16993 MEMB     128      POPS     C28      CTL2    -0.180000       12.0110           0
     16994 MEMB     128      POPS     H8R      HAL2     0.900000E-01   1.00800           0
     16995 MEMB     128      POPS     H8S      HAL2     0.900000E-01   1.00800           0
     16996 MEMB     128      POPS     C29      CEL1    -0.150000       12.0110           0
     16997 MEMB     128      POPS     H91      HEL1     0.150000       1.00800           0
     16998 MEMB     128      POPS     C210     CEL1    -0.150000       12.0110           0
     16999 MEMB     128      POPS     H101     HEL1     0.150000       1.00800           0
     17000 MEMB     128      POPS     C211     CTL2    -0.180000       12.0110           0
     17001 MEMB     128      POPS     H11R     HAL2     0.900000E-01   1.00800           0
     17002 MEMB     128      POPS     H11S     HAL2     0.900000E-01   1.00800           0
     17003 MEMB     128      POPS     C212     CTL2    -0.180000       12.0110           0
     17004 MEMB     128      POPS     H12R     HAL2     0.900000E-01   1.00800           0
     17005 MEMB     128      POPS     H12S     HAL2     0.900000E-01   1.00800           0
     17006 MEMB     128      POPS     C213     CTL2    -0.180000       12.0110           0
     17007 MEMB     128      POPS     H13R     HAL2     0.900000E-01   1.00800           0
     17008 MEMB     128      POPS     H13S     HAL2     0.900000E-01   1.00800           0
     17009 MEMB     128      POPS     C214     CTL2    -0.180000       12.0110           0
     17010 MEMB     128      POPS     H14R     HAL2     0.900000E-01   1.00800           0
     17011 MEMB     128      POPS     H14S     HAL2     0.900000E-01   1.00800           0
     17012 MEMB     128      POPS     C215     CTL2    -0.180000       12.0110           0
     17013 MEMB     128      POPS     H15R     HAL2     0.900000E-01   1.00800           0
     17014 MEMB     128      POPS     H15S     HAL2     0.900000E-01   1.00800           0
     17015 MEMB     128      POPS     C216     CTL2    -0.180000       12.0110           0
     17016 MEMB     128      POPS     H16R     HAL2     0.900000E-01   1.00800           0
     17017 MEMB     128      POPS     H16S     HAL2     0.900000E-01   1.00800           0
     17018 MEMB     128      POPS     C217     CTL2    -0.180000       12.0110           0
     17019 MEMB     128      POPS     H17R     HAL2     0.900000E-01   1.00800           0
     17020 MEMB     128      POPS     H17S     HAL2     0.900000E-01   1.00800           0
     17021 MEMB     128      POPS     C218     CTL3    -0.270000       12.0110           0
     17022 MEMB     128      POPS     H18R     HAL3     0.900000E-01   1.00800           0
     17023 MEMB     128      POPS     H18S     HAL3     0.900000E-01   1.00800           0
     17024 MEMB     128      POPS     H18T     HAL3     0.900000E-01   1.00800           0
     17025 MEMB     128      POPS     C33      CTL2    -0.180000       12.0110           0
     17026 MEMB     128      POPS     H3X      HAL2     0.900000E-01   1.00800           0
     17027 MEMB     128      POPS     H3Y      HAL2     0.900000E-01   1.00800           0
     17028 MEMB     128      POPS     C34      CTL2    -0.180000       12.0110           0
     17029 MEMB     128      POPS     H4X      HAL2     0.900000E-01   1.00800           0
     17030 MEMB     128      POPS     H4Y      HAL2     0.900000E-01   1.00800           0
     17031 MEMB     128      POPS     C35      CTL2    -0.180000       12.0110           0
     17032 MEMB     128      POPS     H5X      HAL2     0.900000E-01   1.00800           0
     17033 MEMB     128      POPS     H5Y      HAL2     0.900000E-01   1.00800           0
     17034 MEMB     128      POPS     C36      CTL2    -0.180000       12.0110           0
     17035 MEMB     128      POPS     H6X      HAL2     0.900000E-01   1.00800           0
     17036 MEMB     128      POPS     H6Y      HAL2     0.900000E-01   1.00800           0
     17037 MEMB     128      POPS     C37      CTL2    -0.180000       12.0110           0
     17038 MEMB     128      POPS     H7X      HAL2     0.900000E-01   1.00800           0
     17039 MEMB     128      POPS     H7Y      HAL2     0.900000E-01   1.00800           0
     17040 MEMB     128      POPS     C38      CTL2    -0.180000       12.0110           0
     17041 MEMB     128      POPS     H8X      HAL2     0.900000E-01   1.00800           0
     17042 MEMB     128      POPS     H8Y      HAL2     0.900000E-01   1.00800           0
     17043 MEMB     128      POPS     C39      CTL2    -0.180000       12.0110           0
     17044 MEMB     128      POPS     H9X      HAL2     0.900000E-01   1.00800           0
     17045 MEMB     128      POPS     H9Y      HAL2     0.900000E-01   1.00800           0
     17046 MEMB     128      POPS     C310     CTL2    -0.180000       12.0110           0
     17047 MEMB     128      POPS     H10X     HAL2     0.900000E-01   1.00800           0
     17048 MEMB     128      POPS     H10Y     HAL2     0.900000E-01   1.00800           0
     17049 MEMB     128      POPS     C311     CTL2    -0.180000       12.0110           0
     17050 MEMB     128      POPS     H11X     HAL2     0.900000E-01   1.00800           0
     17051 MEMB     128      POPS     H11Y     HAL2     0.900000E-01   1.00800           0
     17052 MEMB     128      POPS     C312     CTL2    -0.180000       12.0110           0
     17053 MEMB     128      POPS     H12X     HAL2     0.900000E-01   1.00800           0
     17054 MEMB     128      POPS     H12Y     HAL2     0.900000E-01   1.00800           0
     17055 MEMB     128      POPS     C313     CTL2    -0.180000       12.0110           0
     17056 MEMB     128      POPS     H13X     HAL2     0.900000E-01   1.00800           0
     17057 MEMB     128      POPS     H13Y     HAL2     0.900000E-01   1.00800           0
     17058 MEMB     128      POPS     C314     CTL2    -0.180000       12.0110           0
     17059 MEMB     128      POPS     H14X     HAL2     0.900000E-01   1.00800           0
     17060 MEMB     128      POPS     H14Y     HAL2     0.900000E-01   1.00800           0
     17061 MEMB     128      POPS     C315     CTL2    -0.180000       12.0110           0
     17062 MEMB     128      POPS     H15X     HAL2     0.900000E-01   1.00800           0
     17063 MEMB     128      POPS     H15Y     HAL2     0.900000E-01   1.00800           0
     17064 MEMB     128      POPS     C316     CTL3    -0.270000       12.0110           0
     17065 MEMB     128      POPS     H16X     HAL3     0.900000E-01   1.00800           0
     17066 MEMB     128      POPS     H16Y     HAL3     0.900000E-01   1.00800           0
     17067 MEMB     128      POPS     H16Z     HAL3     0.900000E-01   1.00800           0
     17068 MEMB     129      POPC     N        NTL     -0.600000       14.0070           0
     17069 MEMB     129      POPC     C12      CTL2    -0.100000       12.0110           0
     17070 MEMB     129      POPC     H12A     HL       0.250000       1.00800           0
     17071 MEMB     129      POPC     H12B     HL       0.250000       1.00800           0
     17072 MEMB     129      POPC     C13      CTL5    -0.350000       12.0110           0
     17073 MEMB     129      POPC     H13A     HL       0.250000       1.00800           0
     17074 MEMB     129      POPC     H13B     HL       0.250000       1.00800           0
     17075 MEMB     129      POPC     H13C     HL       0.250000       1.00800           0
     17076 MEMB     129      POPC     C14      CTL5    -0.350000       12.0110           0
     17077 MEMB     129      POPC     H14A     HL       0.250000       1.00800           0
     17078 MEMB     129      POPC     H14B     HL       0.250000       1.00800           0
     17079 MEMB     129      POPC     H14C     HL       0.250000       1.00800           0
     17080 MEMB     129      POPC     C15      CTL5    -0.350000       12.0110           0
     17081 MEMB     129      POPC     H15A     HL       0.250000       1.00800           0
     17082 MEMB     129      POPC     H15B     HL       0.250000       1.00800           0
     17083 MEMB     129      POPC     H15C     HL       0.250000       1.00800           0
     17084 MEMB     129      POPC     C11      CTL2    -0.800000E-01   12.0110           0
     17085 MEMB     129      POPC     H11A     HAL2     0.900000E-01   1.00800           0
     17086 MEMB     129      POPC     H11B     HAL2     0.900000E-01   1.00800           0
     17087 MEMB     129      POPC     P        PL        1.50000       30.9740           0
     17088 MEMB     129      POPC     O13      O2L     -0.780000       15.9994           0
     17089 MEMB     129      POPC     O14      O2L     -0.780000       15.9994           0
     17090 MEMB     129      POPC     O12      OSLP    -0.570000       15.9994           0
     17091 MEMB     129      POPC     O11      OSLP    -0.570000       15.9994           0
     17092 MEMB     129      POPC     C1       CTL2    -0.800000E-01   12.0110           0
     17093 MEMB     129      POPC     HA       HAL2     0.900000E-01   1.00800           0
     17094 MEMB     129      POPC     HB       HAL2     0.900000E-01   1.00800           0
     17095 MEMB     129      POPC     C2       CTL1     0.170000       12.0110           0
     17096 MEMB     129      POPC     HS       HAL1     0.900000E-01   1.00800           0
     17097 MEMB     129      POPC     O21      OSL     -0.490000       15.9994           0
     17098 MEMB     129      POPC     C21      CL       0.900000       12.0110           0
     17099 MEMB     129      POPC     O22      OBL     -0.630000       15.9994           0
     17100 MEMB     129      POPC     C22      CTL2    -0.220000       12.0110           0
     17101 MEMB     129      POPC     H2R      HAL2     0.900000E-01   1.00800           0
     17102 MEMB     129      POPC     H2S      HAL2     0.900000E-01   1.00800           0
     17103 MEMB     129      POPC     C3       CTL2     0.800000E-01   12.0110           0
     17104 MEMB     129      POPC     HX       HAL2     0.900000E-01   1.00800           0
     17105 MEMB     129      POPC     HY       HAL2     0.900000E-01   1.00800           0
     17106 MEMB     129      POPC     O31      OSL     -0.490000       15.9994           0
     17107 MEMB     129      POPC     C31      CL       0.900000       12.0110           0
     17108 MEMB     129      POPC     O32      OBL     -0.630000       15.9994           0
     17109 MEMB     129      POPC     C32      CTL2    -0.220000       12.0110           0
     17110 MEMB     129      POPC     H2X      HAL2     0.900000E-01   1.00800           0
     17111 MEMB     129      POPC     H2Y      HAL2     0.900000E-01   1.00800           0
     17112 MEMB     129      POPC     C23      CTL2    -0.180000       12.0110           0
     17113 MEMB     129      POPC     H3R      HAL2     0.900000E-01   1.00800           0
     17114 MEMB     129      POPC     H3S      HAL2     0.900000E-01   1.00800           0
     17115 MEMB     129      POPC     C24      CTL2    -0.180000       12.0110           0
     17116 MEMB     129      POPC     H4R      HAL2     0.900000E-01   1.00800           0
     17117 MEMB     129      POPC     H4S      HAL2     0.900000E-01   1.00800           0
     17118 MEMB     129      POPC     C25      CTL2    -0.180000       12.0110           0
     17119 MEMB     129      POPC     H5R      HAL2     0.900000E-01   1.00800           0
     17120 MEMB     129      POPC     H5S      HAL2     0.900000E-01   1.00800           0
     17121 MEMB     129      POPC     C26      CTL2    -0.180000       12.0110           0
     17122 MEMB     129      POPC     H6R      HAL2     0.900000E-01   1.00800           0
     17123 MEMB     129      POPC     H6S      HAL2     0.900000E-01   1.00800           0
     17124 MEMB     129      POPC     C27      CTL2    -0.180000       12.0110           0
     17125 MEMB     129      POPC     H7R      HAL2     0.900000E-01   1.00800           0
     17126 MEMB     129      POPC     H7S      HAL2     0.900000E-01   1.00800           0
     17127 MEMB     129      POPC     C28      CTL2    -0.180000       12.0110           0
     17128 MEMB     129      POPC     H8R      HAL2     0.900000E-01   1.00800           0
     17129 MEMB     129      POPC     H8S      HAL2     0.900000E-01   1.00800           0
     17130 MEMB     129      POPC     C29      CEL1    -0.150000       12.0110           0
     17131 MEMB     129      POPC     H91      HEL1     0.150000       1.00800           0
     17132 MEMB     129      POPC     C210     CEL1    -0.150000       12.0110           0
     17133 MEMB     129      POPC     H101     HEL1     0.150000       1.00800           0
     17134 MEMB     129      POPC     C211     CTL2    -0.180000       12.0110           0
     17135 MEMB     129      POPC     H11R     HAL2     0.900000E-01   1.00800           0
     17136 MEMB     129      POPC     H11S     HAL2     0.900000E-01   1.00800           0
     17137 MEMB     129      POPC     C212     CTL2    -0.180000       12.0110           0
     17138 MEMB     129      POPC     H12R     HAL2     0.900000E-01   1.00800           0
     17139 MEMB     129      POPC     H12S     HAL2     0.900000E-01   1.00800           0
     17140 MEMB     129      POPC     C213     CTL2    -0.180000       12.0110           0
     17141 MEMB     129      POPC     H13R     HAL2     0.900000E-01   1.00800           0
     17142 MEMB     129      POPC     H13S     HAL2     0.900000E-01   1.00800           0
     17143 MEMB     129      POPC     C214     CTL2    -0.180000       12.0110           0
     17144 MEMB     129      POPC     H14R     HAL2     0.900000E-01   1.00800           0
     17145 MEMB     129      POPC     H14S     HAL2     0.900000E-01   1.00800           0
     17146 MEMB     129      POPC     C215     CTL2    -0.180000       12.0110           0
     17147 MEMB     129      POPC     H15R     HAL2     0.900000E-01   1.00800           0
     17148 MEMB     129      POPC     H15S     HAL2     0.900000E-01   1.00800           0
     17149 MEMB     129      POPC     C216     CTL2    -0.180000       12.0110           0
     17150 MEMB     129      POPC     H16R     HAL2     0.900000E-01   1.00800           0
     17151 MEMB     129      POPC     H16S     HAL2     0.900000E-01   1.00800           0
     17152 MEMB     129      POPC     C217     CTL2    -0.180000       12.0110           0
     17153 MEMB     129      POPC     H17R     HAL2     0.900000E-01   1.00800           0
     17154 MEMB     129      POPC     H17S     HAL2     0.900000E-01   1.00800           0
     17155 MEMB     129      POPC     C218     CTL3    -0.270000       12.0110           0
     17156 MEMB     129      POPC     H18R     HAL3     0.900000E-01   1.00800           0
     17157 MEMB     129      POPC     H18S     HAL3     0.900000E-01   1.00800           0
     17158 MEMB     129      POPC     H18T     HAL3     0.900000E-01   1.00800           0
     17159 MEMB     129      POPC     C33      CTL2    -0.180000       12.0110           0
     17160 MEMB     129      POPC     H3X      HAL2     0.900000E-01   1.00800           0
     17161 MEMB     129      POPC     H3Y      HAL2     0.900000E-01   1.00800           0
     17162 MEMB     129      POPC     C34      CTL2    -0.180000       12.0110           0
     17163 MEMB     129      POPC     H4X      HAL2     0.900000E-01   1.00800           0
     17164 MEMB     129      POPC     H4Y      HAL2     0.900000E-01   1.00800           0
     17165 MEMB     129      POPC     C35      CTL2    -0.180000       12.0110           0
     17166 MEMB     129      POPC     H5X      HAL2     0.900000E-01   1.00800           0
     17167 MEMB     129      POPC     H5Y      HAL2     0.900000E-01   1.00800           0
     17168 MEMB     129      POPC     C36      CTL2    -0.180000       12.0110           0
     17169 MEMB     129      POPC     H6X      HAL2     0.900000E-01   1.00800           0
     17170 MEMB     129      POPC     H6Y      HAL2     0.900000E-01   1.00800           0
     17171 MEMB     129      POPC     C37      CTL2    -0.180000       12.0110           0
     17172 MEMB     129      POPC     H7X      HAL2     0.900000E-01   1.00800           0
     17173 MEMB     129      POPC     H7Y      HAL2     0.900000E-01   1.00800           0
     17174 MEMB     129      POPC     C38      CTL2    -0.180000       12.0110           0
     17175 MEMB     129      POPC     H8X      HAL2     0.900000E-01   1.00800           0
     17176 MEMB     129      POPC     H8Y      HAL2     0.900000E-01   1.00800           0
     17177 MEMB     129      POPC     C39      CTL2    -0.180000       12.0110           0
     17178 MEMB     129      POPC     H9X      HAL2     0.900000E-01   1.00800           0
     17179 MEMB     129      POPC     H9Y      HAL2     0.900000E-01   1.00800           0
     17180 MEMB     129      POPC     C310     CTL2    -0.180000       12.0110           0
     17181 MEMB     129      POPC     H10X     HAL2     0.900000E-01   1.00800           0
     17182 MEMB     129      POPC     H10Y     HAL2     0.900000E-01   1.00800           0
     17183 MEMB     129      POPC     C311     CTL2    -0.180000       12.0110           0
     17184 MEMB     129      POPC     H11X     HAL2     0.900000E-01   1.00800           0
     17185 MEMB     129      POPC     H11Y     HAL2     0.900000E-01   1.00800           0
     17186 MEMB     129      POPC     C312     CTL2    -0.180000       12.0110           0
     17187 MEMB     129      POPC     H12X     HAL2     0.900000E-01   1.00800           0
     17188 MEMB     129      POPC     H12Y     HAL2     0.900000E-01   1.00800           0
     17189 MEMB     129      POPC     C313     CTL2    -0.180000       12.0110           0
     17190 MEMB     129      POPC     H13X     HAL2     0.900000E-01   1.00800           0
     17191 MEMB     129      POPC     H13Y     HAL2     0.900000E-01   1.00800           0
     17192 MEMB     129      POPC     C314     CTL2    -0.180000       12.0110           0
     17193 MEMB     129      POPC     H14X     HAL2     0.900000E-01   1.00800           0
     17194 MEMB     129      POPC     H14Y     HAL2     0.900000E-01   1.00800           0
     17195 MEMB     129      POPC     C315     CTL2    -0.180000       12.0110           0
     17196 MEMB     129      POPC     H15X     HAL2     0.900000E-01   1.00800           0
     17197 MEMB     129      POPC     H15Y     HAL2     0.900000E-01   1.00800           0
     17198 MEMB     129      POPC     C316     CTL3    -0.270000       12.0110           0
     17199 MEMB     129      POPC     H16X     HAL3     0.900000E-01   1.00800           0
     17200 MEMB     129      POPC     H16Y     HAL3     0.900000E-01   1.00800           0
     17201 MEMB     129      POPC     H16Z     HAL3     0.900000E-01   1.00800           0
     17202 MEMB     130      POPC     N        NTL     -0.600000       14.0070           0
     17203 MEMB     130      POPC     C12      CTL2    -0.100000       12.0110           0
     17204 MEMB     130      POPC     H12A     HL       0.250000       1.00800           0
     17205 MEMB     130      POPC     H12B     HL       0.250000       1.00800           0
     17206 MEMB     130      POPC     C13      CTL5    -0.350000       12.0110           0
     17207 MEMB     130      POPC     H13A     HL       0.250000       1.00800           0
     17208 MEMB     130      POPC     H13B     HL       0.250000       1.00800           0
     17209 MEMB     130      POPC     H13C     HL       0.250000       1.00800           0
     17210 MEMB     130      POPC     C14      CTL5    -0.350000       12.0110           0
     17211 MEMB     130      POPC     H14A     HL       0.250000       1.00800           0
     17212 MEMB     130      POPC     H14B     HL       0.250000       1.00800           0
     17213 MEMB     130      POPC     H14C     HL       0.250000       1.00800           0
     17214 MEMB     130      POPC     C15      CTL5    -0.350000       12.0110           0
     17215 MEMB     130      POPC     H15A     HL       0.250000       1.00800           0
     17216 MEMB     130      POPC     H15B     HL       0.250000       1.00800           0
     17217 MEMB     130      POPC     H15C     HL       0.250000       1.00800           0
     17218 MEMB     130      POPC     C11      CTL2    -0.800000E-01   12.0110           0
     17219 MEMB     130      POPC     H11A     HAL2     0.900000E-01   1.00800           0
     17220 MEMB     130      POPC     H11B     HAL2     0.900000E-01   1.00800           0
     17221 MEMB     130      POPC     P        PL        1.50000       30.9740           0
     17222 MEMB     130      POPC     O13      O2L     -0.780000       15.9994           0
     17223 MEMB     130      POPC     O14      O2L     -0.780000       15.9994           0
     17224 MEMB     130      POPC     O12      OSLP    -0.570000       15.9994           0
     17225 MEMB     130      POPC     O11      OSLP    -0.570000       15.9994           0
     17226 MEMB     130      POPC     C1       CTL2    -0.800000E-01   12.0110           0
     17227 MEMB     130      POPC     HA       HAL2     0.900000E-01   1.00800           0
     17228 MEMB     130      POPC     HB       HAL2     0.900000E-01   1.00800           0
     17229 MEMB     130      POPC     C2       CTL1     0.170000       12.0110           0
     17230 MEMB     130      POPC     HS       HAL1     0.900000E-01   1.00800           0
     17231 MEMB     130      POPC     O21      OSL     -0.490000       15.9994           0
     17232 MEMB     130      POPC     C21      CL       0.900000       12.0110           0
     17233 MEMB     130      POPC     O22      OBL     -0.630000       15.9994           0
     17234 MEMB     130      POPC     C22      CTL2    -0.220000       12.0110           0
     17235 MEMB     130      POPC     H2R      HAL2     0.900000E-01   1.00800           0
     17236 MEMB     130      POPC     H2S      HAL2     0.900000E-01   1.00800           0
     17237 MEMB     130      POPC     C3       CTL2     0.800000E-01   12.0110           0
     17238 MEMB     130      POPC     HX       HAL2     0.900000E-01   1.00800           0
     17239 MEMB     130      POPC     HY       HAL2     0.900000E-01   1.00800           0
     17240 MEMB     130      POPC     O31      OSL     -0.490000       15.9994           0
     17241 MEMB     130      POPC     C31      CL       0.900000       12.0110           0
     17242 MEMB     130      POPC     O32      OBL     -0.630000       15.9994           0
     17243 MEMB     130      POPC     C32      CTL2    -0.220000       12.0110           0
     17244 MEMB     130      POPC     H2X      HAL2     0.900000E-01   1.00800           0
     17245 MEMB     130      POPC     H2Y      HAL2     0.900000E-01   1.00800           0
     17246 MEMB     130      POPC     C23      CTL2    -0.180000       12.0110           0
     17247 MEMB     130      POPC     H3R      HAL2     0.900000E-01   1.00800           0
     17248 MEMB     130      POPC     H3S      HAL2     0.900000E-01   1.00800           0
     17249 MEMB     130      POPC     C24      CTL2    -0.180000       12.0110           0
     17250 MEMB     130      POPC     H4R      HAL2     0.900000E-01   1.00800           0
     17251 MEMB     130      POPC     H4S      HAL2     0.900000E-01   1.00800           0
     17252 MEMB     130      POPC     C25      CTL2    -0.180000       12.0110           0
     17253 MEMB     130      POPC     H5R      HAL2     0.900000E-01   1.00800           0
     17254 MEMB     130      POPC     H5S      HAL2     0.900000E-01   1.00800           0
     17255 MEMB     130      POPC     C26      CTL2    -0.180000       12.0110           0
     17256 MEMB     130      POPC     H6R      HAL2     0.900000E-01   1.00800           0
     17257 MEMB     130      POPC     H6S      HAL2     0.900000E-01   1.00800           0
     17258 MEMB     130      POPC     C27      CTL2    -0.180000       12.0110           0
     17259 MEMB     130      POPC     H7R      HAL2     0.900000E-01   1.00800           0
     17260 MEMB     130      POPC     H7S      HAL2     0.900000E-01   1.00800           0
     17261 MEMB     130      POPC     C28      CTL2    -0.180000       12.0110           0
     17262 MEMB     130      POPC     H8R      HAL2     0.900000E-01   1.00800           0
     17263 MEMB     130      POPC     H8S      HAL2     0.900000E-01   1.00800           0
     17264 MEMB     130      POPC     C29      CEL1    -0.150000       12.0110           0
     17265 MEMB     130      POPC     H91      HEL1     0.150000       1.00800           0
     17266 MEMB     130      POPC     C210     CEL1    -0.150000       12.0110           0
     17267 MEMB     130      POPC     H101     HEL1     0.150000       1.00800           0
     17268 MEMB     130      POPC     C211     CTL2    -0.180000       12.0110           0
     17269 MEMB     130      POPC     H11R     HAL2     0.900000E-01   1.00800           0
     17270 MEMB     130      POPC     H11S     HAL2     0.900000E-01   1.00800           0
     17271 MEMB     130      POPC     C212     CTL2    -0.180000       12.0110           0
     17272 MEMB     130      POPC     H12R     HAL2     0.900000E-01   1.00800           0
     17273 MEMB     130      POPC     H12S     HAL2     0.900000E-01   1.00800           0
     17274 MEMB     130      POPC     C213     CTL2    -0.180000       12.0110           0
     17275 MEMB     130      POPC     H13R     HAL2     0.900000E-01   1.00800           0
     17276 MEMB     130      POPC     H13S     HAL2     0.900000E-01   1.00800           0
     17277 MEMB     130      POPC     C214     CTL2    -0.180000       12.0110           0
     17278 MEMB     130      POPC     H14R     HAL2     0.900000E-01   1.00800           0
     17279 MEMB     130      POPC     H14S     HAL2     0.900000E-01   1.00800           0
     17280 MEMB     130      POPC     C215     CTL2    -0.180000       12.0110           0
     17281 MEMB     130      POPC     H15R     HAL2     0.900000E-01   1.00800           0
     17282 MEMB     130      POPC     H15S     HAL2     0.900000E-01   1.00800           0
     17283 MEMB     130      POPC     C216     CTL2    -0.180000       12.0110           0
     17284 MEMB     130      POPC     H16R     HAL2     0.900000E-01   1.00800           0
     17285 MEMB     130      POPC     H16S     HAL2     0.900000E-01   1.00800           0
     17286 MEMB     130      POPC     C217     CTL2    -0.180000       12.0110           0
     17287 MEMB     130      POPC     H17R     HAL2     0.900000E-01   1.00800           0
     17288 MEMB     130      POPC     H17S     HAL2     0.900000E-01   1.00800           0
     17289 MEMB     130      POPC     C218     CTL3    -0.270000       12.0110           0
     17290 MEMB     130      POPC     H18R     HAL3     0.900000E-01   1.00800           0
     17291 MEMB     130      POPC     H18S     HAL3     0.900000E-01   1.00800           0
     17292 MEMB     130      POPC     H18T     HAL3     0.900000E-01   1.00800           0
     17293 MEMB     130      POPC     C33      CTL2    -0.180000       12.0110           0
     17294 MEMB     130      POPC     H3X      HAL2     0.900000E-01   1.00800           0
     17295 MEMB     130      POPC     H3Y      HAL2     0.900000E-01   1.00800           0
     17296 MEMB     130      POPC     C34      CTL2    -0.180000       12.0110           0
     17297 MEMB     130      POPC     H4X      HAL2     0.900000E-01   1.00800           0
     17298 MEMB     130      POPC     H4Y      HAL2     0.900000E-01   1.00800           0
     17299 MEMB     130      POPC     C35      CTL2    -0.180000       12.0110           0
     17300 MEMB     130      POPC     H5X      HAL2     0.900000E-01   1.00800           0
     17301 MEMB     130      POPC     H5Y      HAL2     0.900000E-01   1.00800           0
     17302 MEMB     130      POPC     C36      CTL2    -0.180000       12.0110           0
     17303 MEMB     130      POPC     H6X      HAL2     0.900000E-01   1.00800           0
     17304 MEMB     130      POPC     H6Y      HAL2     0.900000E-01   1.00800           0
     17305 MEMB     130      POPC     C37      CTL2    -0.180000       12.0110           0
     17306 MEMB     130      POPC     H7X      HAL2     0.900000E-01   1.00800           0
     17307 MEMB     130      POPC     H7Y      HAL2     0.900000E-01   1.00800           0
     17308 MEMB     130      POPC     C38      CTL2    -0.180000       12.0110           0
     17309 MEMB     130      POPC     H8X      HAL2     0.900000E-01   1.00800           0
     17310 MEMB     130      POPC     H8Y      HAL2     0.900000E-01   1.00800           0
     17311 MEMB     130      POPC     C39      CTL2    -0.180000       12.0110           0
     17312 MEMB     130      POPC     H9X      HAL2     0.900000E-01   1.00800           0
     17313 MEMB     130      POPC     H9Y      HAL2     0.900000E-01   1.00800           0
     17314 MEMB     130      POPC     C310     CTL2    -0.180000       12.0110           0
     17315 MEMB     130      POPC     H10X     HAL2     0.900000E-01   1.00800           0
     17316 MEMB     130      POPC     H10Y     HAL2     0.900000E-01   1.00800           0
     17317 MEMB     130      POPC     C311     CTL2    -0.180000       12.0110           0
     17318 MEMB     130      POPC     H11X     HAL2     0.900000E-01   1.00800           0
     17319 MEMB     130      POPC     H11Y     HAL2     0.900000E-01   1.00800           0
     17320 MEMB     130      POPC     C312     CTL2    -0.180000       12.0110           0
     17321 MEMB     130      POPC     H12X     HAL2     0.900000E-01   1.00800           0
     17322 MEMB     130      POPC     H12Y     HAL2     0.900000E-01   1.00800           0
     17323 MEMB     130      POPC     C313     CTL2    -0.180000       12.0110           0
     17324 MEMB     130      POPC     H13X     HAL2     0.900000E-01   1.00800           0
     17325 MEMB     130      POPC     H13Y     HAL2     0.900000E-01   1.00800           0
     17326 MEMB     130      POPC     C314     CTL2    -0.180000       12.0110           0
     17327 MEMB     130      POPC     H14X     HAL2     0.900000E-01   1.00800           0
     17328 MEMB     130      POPC     H14Y     HAL2     0.900000E-01   1.00800           0
     17329 MEMB     130      POPC     C315     CTL2    -0.180000       12.0110           0
     17330 MEMB     130      POPC     H15X     HAL2     0.900000E-01   1.00800           0
     17331 MEMB     130      POPC     H15Y     HAL2     0.900000E-01   1.00800           0
     17332 MEMB     130      POPC     C316     CTL3    -0.270000       12.0110           0
     17333 MEMB     130      POPC     H16X     HAL3     0.900000E-01   1.00800           0
     17334 MEMB     130      POPC     H16Y     HAL3     0.900000E-01   1.00800           0
     17335 MEMB     130      POPC     H16Z     HAL3     0.900000E-01   1.00800           0
     17336 TIP3     1        TIP3     OH2      OT      -0.834000       15.9994           0
     17337 TIP3     1        TIP3     H1       HT       0.417000       1.00800           0
     17338 TIP3     1        TIP3     H2       HT       0.417000       1.00800           0
     17339 TIP3     2        TIP3     OH2      OT      -0.834000       15.9994           0
     17340 TIP3     2        TIP3     H1       HT       0.417000       1.00800           0
     17341 TIP3     2        TIP3     H2       HT       0.417000       1.00800           0
     17342 TIP3     3        TIP3     OH2      OT      -0.834000       15.9994           0
     17343 TIP3     3        TIP3     H1       HT       0.417000       1.00800           0
     17344 TIP3     3        TIP3     H2       HT       0.417000       1.00800           0
     17345 TIP3     4        TIP3     OH2      OT      -0.834000       15.9994           0
     17346 TIP3     4        TIP3     H1       HT       0.417000       1.00800           0
     17347 TIP3     4        TIP3     H2       HT       0.417000       1.00800           0
     17348 TIP3     5        TIP3     OH2      OT      -0.834000       15.9994           0
     17349 TIP3     5        TIP3     H1       HT       0.417000       1.00800           0
     17350 TIP3     5        TIP3     H2       HT       0.417000       1.00800           0
     17351 TIP3     6        TIP3     OH2      OT      -0.834000       15.9994           0
     17352 TIP3     6        TIP3     H1       HT       0.417000       1.00800           0
     17353 TIP3     6        TIP3     H2       HT       0.417000       1.00800           0
     17354 TIP3     7        TIP3     OH2      OT      -0.834000       15.9994           0
     17355 TIP3     7        TIP3     H1       HT       0.417000       1.00800           0
     17356 TIP3     7        TIP3     H2       HT       0.417000       1.00800           0
     17357 TIP3     8        TIP3     OH2      OT      -0.834000       15.9994           0
     17358 TIP3     8        TIP3     H1       HT       0.417000       1.00800           0
     17359 TIP3     8        TIP3     H2       HT       0.417000       1.00800           0
     17360 TIP3     9        TIP3     OH2      OT      -0.834000       15.9994           0
     17361 TIP3     9        TIP3     H1       HT       0.417000       1.00800           0
     17362 TIP3     9        TIP3     H2       HT       0.417000       1.00800           0
     17363 TIP3     10       TIP3     OH2      OT      -0.834000       15.9994           0
     17364 TIP3     10       TIP3     H1       HT       0.417000       1.00800           0
     17365 TIP3     10       TIP3     H2       HT       0.417000       1.00800           0
     17366 TIP3     11       TIP3     OH2      OT      -0.834000       15.9994           0
     17367 TIP3     11       TIP3     H1       HT       0.417000       1.00800           0
     17368 TIP3     11       TIP3     H2       HT       0.417000       1.00800           0
     17369 TIP3     12       TIP3     OH2      OT      -0.834000       15.9994           0
     17370 TIP3     12       TIP3     H1       HT       0.417000       1.00800           0
     17371 TIP3     12       TIP3     H2       HT       0.417000       1.00800           0
     17372 TIP3     13       TIP3     OH2      OT      -0.834000       15.9994           0
     17373 TIP3     13       TIP3     H1       HT       0.417000       1.00800           0
     17374 TIP3     13       TIP3     H2       HT       0.417000       1.00800           0
     17375 TIP3     14       TIP3     OH2      OT      -0.834000       15.9994           0
     17376 TIP3     14       TIP3     H1       HT       0.417000       1.00800           0
     17377 TIP3     14       TIP3     H2       HT       0.417000       1.00800           0
     17378 TIP3     15       TIP3     OH2      OT      -0.834000       15.9994           0
     17379 TIP3     15       TIP3     H1       HT       0.417000       1.00800           0
     17380 TIP3     15       TIP3     H2       HT       0.417000       1.00800           0
     17381 TIP3     16       TIP3     OH2      OT      -0.834000       15.9994           0
     17382 TIP3     16       TIP3     H1       HT       0.417000       1.00800           0
     17383 TIP3     16       TIP3     H2       HT       0.417000       1.00800           0
     17384 TIP3     17       TIP3     OH2      OT      -0.834000       15.9994           0
     17385 TIP3     17       TIP3     H1       HT       0.417000       1.00800           0
     17386 TIP3     17       TIP3     H2       HT       0.417000       1.00800           0
     17387 TIP3     18       TIP3     OH2      OT      -0.834000       15.9994           0
     17388 TIP3     18       TIP3     H1       HT       0.417000       1.00800           0
     17389 TIP3     18       TIP3     H2       HT       0.417000       1.00800           0
     17390 TIP3     19       TIP3     OH2      OT      -0.834000       15.9994           0
     17391 TIP3     19       TIP3     H1       HT       0.417000       1.00800           0
     17392 TIP3     19       TIP3     H2       HT       0.417000       1.00800           0
     17393 TIP3     20       TIP3     OH2      OT      -0.834000       15.9994           0
     17394 TIP3     20       TIP3     H1       HT       0.417000       1.00800           0
     17395 TIP3     20       TIP3     H2       HT       0.417000       1.00800           0
     17396 TIP3     21       TIP3     OH2      OT      -0.834000       15.9994           0
     17397 TIP3     21       TIP3     H1       HT       0.417000       1.00800           0
     17398 TIP3     21       TIP3     H2       HT       0.417000       1.00800           0
     17399 TIP3     22       TIP3     OH2      OT      -0.834000       15.9994           0
     17400 TIP3     22       TIP3     H1       HT       0.417000       1.00800           0
     17401 TIP3     22       TIP3     H2       HT       0.417000       1.00800           0
     17402 TIP3     23       TIP3     OH2      OT      -0.834000       15.9994           0
     17403 TIP3     23       TIP3     H1       HT       0.417000       1.00800           0
     17404 TIP3     23       TIP3     H2       HT       0.417000       1.00800           0
     17405 TIP3     24       TIP3     OH2      OT      -0.834000       15.9994           0
     17406 TIP3     24       TIP3     H1       HT       0.417000       1.00800           0
     17407 TIP3     24       TIP3     H2       HT       0.417000       1.00800           0
     17408 TIP3     25       TIP3     OH2      OT      -0.834000       15.9994           0
     17409 TIP3     25       TIP3     H1       HT       0.417000       1.00800           0
     17410 TIP3     25       TIP3     H2       HT       0.417000       1.00800           0
     17411 TIP3     26       TIP3     OH2      OT      -0.834000       15.9994           0
     17412 TIP3     26       TIP3     H1       HT       0.417000       1.00800           0
     17413 TIP3     26       TIP3     H2       HT       0.417000       1.00800           0
     17414 TIP3     27       TIP3     OH2      OT      -0.834000       15.9994           0
     17415 TIP3     27       TIP3     H1       HT       0.417000       1.00800           0
     17416 TIP3     27       TIP3     H2       HT       0.417000       1.00800           0
     17417 TIP3     28       TIP3     OH2      OT      -0.834000       15.9994           0
     17418 TIP3     28       TIP3     H1       HT       0.417000       1.00800           0
     17419 TIP3     28       TIP3     H2       HT       0.417000       1.00800           0
     17420 TIP3     29       TIP3     OH2      OT      -0.834000       15.9994           0
     17421 TIP3     29       TIP3     H1       HT       0.417000       1.00800           0
     17422 TIP3     29       TIP3     H2       HT       0.417000       1.00800           0
     17423 TIP3     30       TIP3     OH2      OT      -0.834000       15.9994           0
     17424 TIP3     30       TIP3     H1       HT       0.417000       1.00800           0
     17425 TIP3     30       TIP3     H2       HT       0.417000       1.00800           0
     17426 TIP3     31       TIP3     OH2      OT      -0.834000       15.9994           0
     17427 TIP3     31       TIP3     H1       HT       0.417000       1.00800           0
     17428 TIP3     31       TIP3     H2       HT       0.417000       1.00800           0
     17429 TIP3     32       TIP3     OH2      OT      -0.834000       15.9994           0
     17430 TIP3     32       TIP3     H1       HT       0.417000       1.00800           0
     17431 TIP3     32       TIP3     H2       HT       0.417000       1.00800           0
     17432 TIP3     33       TIP3     OH2      OT      -0.834000       15.9994           0
     17433 TIP3     33       TIP3     H1       HT       0.417000       1.00800           0
     17434 TIP3     33       TIP3     H2       HT       0.417000       1.00800           0
     17435 TIP3     34       TIP3     OH2      OT      -0.834000       15.9994           0
     17436 TIP3     34       TIP3     H1       HT       0.417000       1.00800           0
     17437 TIP3     34       TIP3     H2       HT       0.417000       1.00800           0
     17438 TIP3     35       TIP3     OH2      OT      -0.834000       15.9994           0
     17439 TIP3     35       TIP3     H1       HT       0.417000       1.00800           0
     17440 TIP3     35       TIP3     H2       HT       0.417000       1.00800           0
     17441 TIP3     36       TIP3     OH2      OT      -0.834000       15.9994           0
     17442 TIP3     36       TIP3     H1       HT       0.417000       1.00800           0
     17443 TIP3     36       TIP3     H2       HT       0.417000       1.00800           0
     17444 TIP3     37       TIP3     OH2      OT      -0.834000       15.9994           0
     17445 TIP3     37       TIP3     H1       HT       0.417000       1.00800           0
     17446 TIP3     37       TIP3     H2       HT       0.417000       1.00800           0
     17447 TIP3     38       TIP3     OH2      OT      -0.834000       15.9994           0
     17448 TIP3     38       TIP3     H1       HT       0.417000       1.00800           0
     17449 TIP3     38       TIP3     H2       HT       0.417000       1.00800           0
     17450 TIP3     39       TIP3     OH2      OT      -0.834000       15.9994           0
     17451 TIP3     39       TIP3     H1       HT       0.417000       1.00800           0
     17452 TIP3     39       TIP3     H2       HT       0.417000       1.00800           0
     17453 TIP3     40       TIP3     OH2      OT      -0.834000       15.9994           0
     17454 TIP3     40       TIP3     H1       HT       0.417000       1.00800           0
     17455 TIP3     40       TIP3     H2       HT       0.417000       1.00800           0
     17456 TIP3     41       TIP3     OH2      OT      -0.834000       15.9994           0
     17457 TIP3     41       TIP3     H1       HT       0.417000       1.00800           0
     17458 TIP3     41       TIP3     H2       HT       0.417000       1.00800           0
     17459 TIP3     42       TIP3     OH2      OT      -0.834000       15.9994           0
     17460 TIP3     42       TIP3     H1       HT       0.417000       1.00800           0
     17461 TIP3     42       TIP3     H2       HT       0.417000       1.00800           0
     17462 TIP3     43       TIP3     OH2      OT      -0.834000       15.9994           0
     17463 TIP3     43       TIP3     H1       HT       0.417000       1.00800           0
     17464 TIP3     43       TIP3     H2       HT       0.417000       1.00800           0
     17465 TIP3     44       TIP3     OH2      OT      -0.834000       15.9994           0
     17466 TIP3     44       TIP3     H1       HT       0.417000       1.00800           0
     17467 TIP3     44       TIP3     H2       HT       0.417000       1.00800           0
     17468 TIP3     45       TIP3     OH2      OT      -0.834000       15.9994           0
     17469 TIP3     45       TIP3     H1       HT       0.417000       1.00800           0
     17470 TIP3     45       TIP3     H2       HT       0.417000       1.00800           0
     17471 TIP3     46       TIP3     OH2      OT      -0.834000       15.9994           0
     17472 TIP3     46       TIP3     H1       HT       0.417000       1.00800           0
     17473 TIP3     46       TIP3     H2       HT       0.417000       1.00800           0
     17474 TIP3     47       TIP3     OH2      OT      -0.834000       15.9994           0
     17475 TIP3     47       TIP3     H1       HT       0.417000       1.00800           0
     17476 TIP3     47       TIP3     H2       HT       0.417000       1.00800           0
     17477 TIP3     48       TIP3     OH2      OT      -0.834000       15.9994           0
     17478 TIP3     48       TIP3     H1       HT       0.417000       1.00800           0
     17479 TIP3     48       TIP3     H2       HT       0.417000       1.00800           0
     17480 TIP3     49       TIP3     OH2      OT      -0.834000       15.9994           0
     17481 TIP3     49       TIP3     H1       HT       0.417000       1.00800           0
     17482 TIP3     49       TIP3     H2       HT       0.417000       1.00800           0
     17483 TIP3     50       TIP3     OH2      OT      -0.834000       15.9994           0
     17484 TIP3     50       TIP3     H1       HT       0.417000       1.00800           0
     17485 TIP3     50       TIP3     H2       HT       0.417000       1.00800           0
     17486 TIP3     51       TIP3     OH2      OT      -0.834000       15.9994           0
     17487 TIP3     51       TIP3     H1       HT       0.417000       1.00800           0
     17488 TIP3     51       TIP3     H2       HT       0.417000       1.00800           0
     17489 TIP3     52       TIP3     OH2      OT      -0.834000       15.9994           0
     17490 TIP3     52       TIP3     H1       HT       0.417000       1.00800           0
     17491 TIP3     52       TIP3     H2       HT       0.417000       1.00800           0
     17492 TIP3     53       TIP3     OH2      OT      -0.834000       15.9994           0
     17493 TIP3     53       TIP3     H1       HT       0.417000       1.00800           0
     17494 TIP3     53       TIP3     H2       HT       0.417000       1.00800           0
     17495 TIP3     54       TIP3     OH2      OT      -0.834000       15.9994           0
     17496 TIP3     54       TIP3     H1       HT       0.417000       1.00800           0
     17497 TIP3     54       TIP3     H2       HT       0.417000       1.00800           0
     17498 TIP3     55       TIP3     OH2      OT      -0.834000       15.9994           0
     17499 TIP3     55       TIP3     H1       HT       0.417000       1.00800           0
     17500 TIP3     55       TIP3     H2       HT       0.417000       1.00800           0
     17501 TIP3     56       TIP3     OH2      OT      -0.834000       15.9994           0
     17502 TIP3     56       TIP3     H1       HT       0.417000       1.00800           0
     17503 TIP3     56       TIP3     H2       HT       0.417000       1.00800           0
     17504 TIP3     57       TIP3     OH2      OT      -0.834000       15.9994           0
     17505 TIP3     57       TIP3     H1       HT       0.417000       1.00800           0
     17506 TIP3     57       TIP3     H2       HT       0.417000       1.00800           0
     17507 TIP3     58       TIP3     OH2      OT      -0.834000       15.9994           0
     17508 TIP3     58       TIP3     H1       HT       0.417000       1.00800           0
     17509 TIP3     58       TIP3     H2       HT       0.417000       1.00800           0
     17510 TIP3     59       TIP3     OH2      OT      -0.834000       15.9994           0
     17511 TIP3     59       TIP3     H1       HT       0.417000       1.00800           0
     17512 TIP3     59       TIP3     H2       HT       0.417000       1.00800           0
     17513 TIP3     60       TIP3     OH2      OT      -0.834000       15.9994           0
     17514 TIP3     60       TIP3     H1       HT       0.417000       1.00800           0
     17515 TIP3     60       TIP3     H2       HT       0.417000       1.00800           0
     17516 TIP3     61       TIP3     OH2      OT      -0.834000       15.9994           0
     17517 TIP3     61       TIP3     H1       HT       0.417000       1.00800           0
     17518 TIP3     61       TIP3     H2       HT       0.417000       1.00800           0
     17519 TIP3     62       TIP3     OH2      OT      -0.834000       15.9994           0
     17520 TIP3     62       TIP3     H1       HT       0.417000       1.00800           0
     17521 TIP3     62       TIP3     H2       HT       0.417000       1.00800           0
     17522 TIP3     63       TIP3     OH2      OT      -0.834000       15.9994           0
     17523 TIP3     63       TIP3     H1       HT       0.417000       1.00800           0
     17524 TIP3     63       TIP3     H2       HT       0.417000       1.00800           0
     17525 TIP3     64       TIP3     OH2      OT      -0.834000       15.9994           0
     17526 TIP3     64       TIP3     H1       HT       0.417000       1.00800           0
     17527 TIP3     64       TIP3     H2       HT       0.417000       1.00800           0
     17528 TIP3     65       TIP3     OH2      OT      -0.834000       15.9994           0
     17529 TIP3     65       TIP3     H1       HT       0.417000       1.00800           0
     17530 TIP3     65       TIP3     H2       HT       0.417000       1.00800           0
     17531 TIP3     66       TIP3     OH2      OT      -0.834000       15.9994           0
     17532 TIP3     66       TIP3     H1       HT       0.417000       1.00800           0
     17533 TIP3     66       TIP3     H2       HT       0.417000       1.00800           0
     17534 TIP3     67       TIP3     OH2      OT      -0.834000       15.9994           0
     17535 TIP3     67       TIP3     H1       HT       0.417000       1.00800           0
     17536 TIP3     67       TIP3     H2       HT       0.417000       1.00800           0
     17537 TIP3     68       TIP3     OH2      OT      -0.834000       15.9994           0
     17538 TIP3     68       TIP3     H1       HT       0.417000       1.00800           0
     17539 TIP3     68       TIP3     H2       HT       0.417000       1.00800           0
     17540 TIP3     69       TIP3     OH2      OT      -0.834000       15.9994           0
     17541 TIP3     69       TIP3     H1       HT       0.417000       1.00800           0
     17542 TIP3     69       TIP3     H2       HT       0.417000       1.00800           0
     17543 TIP3     70       TIP3     OH2      OT      -0.834000       15.9994           0
     17544 TIP3     70       TIP3     H1       HT       0.417000       1.00800           0
     17545 TIP3     70       TIP3     H2       HT       0.417000       1.00800           0
     17546 TIP3     71       TIP3     OH2      OT      -0.834000       15.9994           0
     17547 TIP3     71       TIP3     H1       HT       0.417000       1.00800           0
     17548 TIP3     71       TIP3     H2       HT       0.417000       1.00800           0
     17549 TIP3     72       TIP3     OH2      OT      -0.834000       15.9994           0
     17550 TIP3     72       TIP3     H1       HT       0.417000       1.00800           0
     17551 TIP3     72       TIP3     H2       HT       0.417000       1.00800           0
     17552 TIP3     73       TIP3     OH2      OT      -0.834000       15.9994           0
     17553 TIP3     73       TIP3     H1       HT       0.417000       1.00800           0
     17554 TIP3     73       TIP3     H2       HT       0.417000       1.00800           0
     17555 TIP3     74       TIP3     OH2      OT      -0.834000       15.9994           0
     17556 TIP3     74       TIP3     H1       HT       0.417000       1.00800           0
     17557 TIP3     74       TIP3     H2       HT       0.417000       1.00800           0
     17558 TIP3     75       TIP3     OH2      OT      -0.834000       15.9994           0
     17559 TIP3     75       TIP3     H1       HT       0.417000       1.00800           0
     17560 TIP3     75       TIP3     H2       HT       0.417000       1.00800           0
     17561 TIP3     76       TIP3     OH2      OT      -0.834000       15.9994           0
     17562 TIP3     76       TIP3     H1       HT       0.417000       1.00800           0
     17563 TIP3     76       TIP3     H2       HT       0.417000       1.00800           0
     17564 TIP3     77       TIP3     OH2      OT      -0.834000       15.9994           0
     17565 TIP3     77       TIP3     H1       HT       0.417000       1.00800           0
     17566 TIP3     77       TIP3     H2       HT       0.417000       1.00800           0
     17567 TIP3     78       TIP3     OH2      OT      -0.834000       15.9994           0
     17568 TIP3     78       TIP3     H1       HT       0.417000       1.00800           0
     17569 TIP3     78       TIP3     H2       HT       0.417000       1.00800           0
     17570 TIP3     79       TIP3     OH2      OT      -0.834000       15.9994           0
     17571 TIP3     79       TIP3     H1       HT       0.417000       1.00800           0
     17572 TIP3     79       TIP3     H2       HT       0.417000       1.00800           0
     17573 TIP3     80       TIP3     OH2      OT      -0.834000       15.9994           0
     17574 TIP3     80       TIP3     H1       HT       0.417000       1.00800           0
     17575 TIP3     80       TIP3     H2       HT       0.417000       1.00800           0
     17576 TIP3     81       TIP3     OH2      OT      -0.834000       15.9994           0
     17577 TIP3     81       TIP3     H1       HT       0.417000       1.00800           0
     17578 TIP3     81       TIP3     H2       HT       0.417000       1.00800           0
     17579 TIP3     82       TIP3     OH2      OT      -0.834000       15.9994           0
     17580 TIP3     82       TIP3     H1       HT       0.417000       1.00800           0
     17581 TIP3     82       TIP3     H2       HT       0.417000       1.00800           0
     17582 TIP3     83       TIP3     OH2      OT      -0.834000       15.9994           0
     17583 TIP3     83       TIP3     H1       HT       0.417000       1.00800           0
     17584 TIP3     83       TIP3     H2       HT       0.417000       1.00800           0
     17585 TIP3     84       TIP3     OH2      OT      -0.834000       15.9994           0
     17586 TIP3     84       TIP3     H1       HT       0.417000       1.00800           0
     17587 TIP3     84       TIP3     H2       HT       0.417000       1.00800           0
     17588 TIP3     85       TIP3     OH2      OT      -0.834000       15.9994           0
     17589 TIP3     85       TIP3     H1       HT       0.417000       1.00800           0
     17590 TIP3     85       TIP3     H2       HT       0.417000       1.00800           0
     17591 TIP3     86       TIP3     OH2      OT      -0.834000       15.9994           0
     17592 TIP3     86       TIP3     H1       HT       0.417000       1.00800           0
     17593 TIP3     86       TIP3     H2       HT       0.417000       1.00800           0
     17594 TIP3     87       TIP3     OH2      OT      -0.834000       15.9994           0
     17595 TIP3     87       TIP3     H1       HT       0.417000       1.00800           0
     17596 TIP3     87       TIP3     H2       HT       0.417000       1.00800           0
     17597 TIP3     88       TIP3     OH2      OT      -0.834000       15.9994           0
     17598 TIP3     88       TIP3     H1       HT       0.417000       1.00800           0
     17599 TIP3     88       TIP3     H2       HT       0.417000       1.00800           0
     17600 TIP3     89       TIP3     OH2      OT      -0.834000       15.9994           0
     17601 TIP3     89       TIP3     H1       HT       0.417000       1.00800           0
     17602 TIP3     89       TIP3     H2       HT       0.417000       1.00800           0
     17603 TIP3     90       TIP3     OH2      OT      -0.834000       15.9994           0
     17604 TIP3     90       TIP3     H1       HT       0.417000       1.00800           0
     17605 TIP3     90       TIP3     H2       HT       0.417000       1.00800           0
     17606 TIP3     91       TIP3     OH2      OT      -0.834000       15.9994           0
     17607 TIP3     91       TIP3     H1       HT       0.417000       1.00800           0
     17608 TIP3     91       TIP3     H2       HT       0.417000       1.00800           0
     17609 TIP3     92       TIP3     OH2      OT      -0.834000       15.9994           0
     17610 TIP3     92       TIP3     H1       HT       0.417000       1.00800           0
     17611 TIP3     92       TIP3     H2       HT       0.417000       1.00800           0
     17612 TIP3     93       TIP3     OH2      OT      -0.834000       15.9994           0
     17613 TIP3     93       TIP3     H1       HT       0.417000       1.00800           0
     17614 TIP3     93       TIP3     H2       HT       0.417000       1.00800           0
     17615 TIP3     94       TIP3     OH2      OT      -0.834000       15.9994           0
     17616 TIP3     94       TIP3     H1       HT       0.417000       1.00800           0
     17617 TIP3     94       TIP3     H2       HT       0.417000       1.00800           0
     17618 TIP3     95       TIP3     OH2      OT      -0.834000       15.9994           0
     17619 TIP3     95       TIP3     H1       HT       0.417000       1.00800           0
     17620 TIP3     95       TIP3     H2       HT       0.417000       1.00800           0
     17621 TIP3     96       TIP3     OH2      OT      -0.834000       15.9994           0
     17622 TIP3     96       TIP3     H1       HT       0.417000       1.00800           0
     17623 TIP3     96       TIP3     H2       HT       0.417000       1.00800           0
     17624 TIP3     97       TIP3     OH2      OT      -0.834000       15.9994           0
     17625 TIP3     97       TIP3     H1       HT       0.417000       1.00800           0
     17626 TIP3     97       TIP3     H2       HT       0.417000       1.00800           0
     17627 TIP3     98       TIP3     OH2      OT      -0.834000       15.9994           0
     17628 TIP3     98       TIP3     H1       HT       0.417000       1.00800           0
     17629 TIP3     98       TIP3     H2       HT       0.417000       1.00800           0
     17630 TIP3     99       TIP3     OH2      OT      -0.834000       15.9994           0
     17631 TIP3     99       TIP3     H1       HT       0.417000       1.00800           0
     17632 TIP3     99       TIP3     H2       HT       0.417000       1.00800           0
     17633 TIP3     100      TIP3     OH2      OT      -0.834000       15.9994           0
     17634 TIP3     100      TIP3     H1       HT       0.417000       1.00800           0
     17635 TIP3     100      TIP3     H2       HT       0.417000       1.00800           0
     17636 TIP3     101      TIP3     OH2      OT      -0.834000       15.9994           0
     17637 TIP3     101      TIP3     H1       HT       0.417000       1.00800           0
     17638 TIP3     101      TIP3     H2       HT       0.417000       1.00800           0
     17639 TIP3     102      TIP3     OH2      OT      -0.834000       15.9994           0
     17640 TIP3     102      TIP3     H1       HT       0.417000       1.00800           0
     17641 TIP3     102      TIP3     H2       HT       0.417000       1.00800           0
     17642 TIP3     103      TIP3     OH2      OT      -0.834000       15.9994           0
     17643 TIP3     103      TIP3     H1       HT       0.417000       1.00800           0
     17644 TIP3     103      TIP3     H2       HT       0.417000       1.00800           0
     17645 TIP3     104      TIP3     OH2      OT      -0.834000       15.9994           0
     17646 TIP3     104      TIP3     H1       HT       0.417000       1.00800           0
     17647 TIP3     104      TIP3     H2       HT       0.417000       1.00800           0
     17648 TIP3     105      TIP3     OH2      OT      -0.834000       15.9994           0
     17649 TIP3     105      TIP3     H1       HT       0.417000       1.00800           0
     17650 TIP3     105      TIP3     H2       HT       0.417000       1.00800           0
     17651 TIP3     106      TIP3     OH2      OT      -0.834000       15.9994           0
     17652 TIP3     106      TIP3     H1       HT       0.417000       1.00800           0
     17653 TIP3     106      TIP3     H2       HT       0.417000       1.00800           0
     17654 TIP3     107      TIP3     OH2      OT      -0.834000       15.9994           0
     17655 TIP3     107      TIP3     H1       HT       0.417000       1.00800           0
     17656 TIP3     107      TIP3     H2       HT       0.417000       1.00800           0
     17657 TIP3     108      TIP3     OH2      OT      -0.834000       15.9994           0
     17658 TIP3     108      TIP3     H1       HT       0.417000       1.00800           0
     17659 TIP3     108      TIP3     H2       HT       0.417000       1.00800           0
     17660 TIP3     109      TIP3     OH2      OT      -0.834000       15.9994           0
     17661 TIP3     109      TIP3     H1       HT       0.417000       1.00800           0
     17662 TIP3     109      TIP3     H2       HT       0.417000       1.00800           0
     17663 TIP3     110      TIP3     OH2      OT      -0.834000       15.9994           0
     17664 TIP3     110      TIP3     H1       HT       0.417000       1.00800           0
     17665 TIP3     110      TIP3     H2       HT       0.417000       1.00800           0
     17666 TIP3     111      TIP3     OH2      OT      -0.834000       15.9994           0
     17667 TIP3     111      TIP3     H1       HT       0.417000       1.00800           0
     17668 TIP3     111      TIP3     H2       HT       0.417000       1.00800           0
     17669 TIP3     112      TIP3     OH2      OT      -0.834000       15.9994           0
     17670 TIP3     112      TIP3     H1       HT       0.417000       1.00800           0
     17671 TIP3     112      TIP3     H2       HT       0.417000       1.00800           0
     17672 TIP3     113      TIP3     OH2      OT      -0.834000       15.9994           0
     17673 TIP3     113      TIP3     H1       HT       0.417000       1.00800           0
     17674 TIP3     113      TIP3     H2       HT       0.417000       1.00800           0
     17675 TIP3     114      TIP3     OH2      OT      -0.834000       15.9994           0
     17676 TIP3     114      TIP3     H1       HT       0.417000       1.00800           0
     17677 TIP3     114      TIP3     H2       HT       0.417000       1.00800           0
     17678 TIP3     115      TIP3     OH2      OT      -0.834000       15.9994           0
     17679 TIP3     115      TIP3     H1       HT       0.417000       1.00800           0
     17680 TIP3     115      TIP3     H2       HT       0.417000       1.00800           0
     17681 TIP3     116      TIP3     OH2      OT      -0.834000       15.9994           0
     17682 TIP3     116      TIP3     H1       HT       0.417000       1.00800           0
     17683 TIP3     116      TIP3     H2       HT       0.417000       1.00800           0
     17684 TIP3     117      TIP3     OH2      OT      -0.834000       15.9994           0
     17685 TIP3     117      TIP3     H1       HT       0.417000       1.00800           0
     17686 TIP3     117      TIP3     H2       HT       0.417000       1.00800           0
     17687 TIP3     118      TIP3     OH2      OT      -0.834000       15.9994           0
     17688 TIP3     118      TIP3     H1       HT       0.417000       1.00800           0
     17689 TIP3     118      TIP3     H2       HT       0.417000       1.00800           0
     17690 TIP3     119      TIP3     OH2      OT      -0.834000       15.9994           0
     17691 TIP3     119      TIP3     H1       HT       0.417000       1.00800           0
     17692 TIP3     119      TIP3     H2       HT       0.417000       1.00800           0
     17693 TIP3     120      TIP3     OH2      OT      -0.834000       15.9994           0
     17694 TIP3     120      TIP3     H1       HT       0.417000       1.00800           0
     17695 TIP3     120      TIP3     H2       HT       0.417000       1.00800           0
     17696 TIP3     121      TIP3     OH2      OT      -0.834000       15.9994           0
     17697 TIP3     121      TIP3     H1       HT       0.417000       1.00800           0
     17698 TIP3     121      TIP3     H2       HT       0.417000       1.00800           0
     17699 TIP3     122      TIP3     OH2      OT      -0.834000       15.9994           0
     17700 TIP3     122      TIP3     H1       HT       0.417000       1.00800           0
     17701 TIP3     122      TIP3     H2       HT       0.417000       1.00800           0
     17702 TIP3     123      TIP3     OH2      OT      -0.834000       15.9994           0
     17703 TIP3     123      TIP3     H1       HT       0.417000       1.00800           0
     17704 TIP3     123      TIP3     H2       HT       0.417000       1.00800           0
     17705 TIP3     124      TIP3     OH2      OT      -0.834000       15.9994           0
     17706 TIP3     124      TIP3     H1       HT       0.417000       1.00800           0
     17707 TIP3     124      TIP3     H2       HT       0.417000       1.00800           0
     17708 TIP3     125      TIP3     OH2      OT      -0.834000       15.9994           0
     17709 TIP3     125      TIP3     H1       HT       0.417000       1.00800           0
     17710 TIP3     125      TIP3     H2       HT       0.417000       1.00800           0
     17711 TIP3     126      TIP3     OH2      OT      -0.834000       15.9994           0
     17712 TIP3     126      TIP3     H1       HT       0.417000       1.00800           0
     17713 TIP3     126      TIP3     H2       HT       0.417000       1.00800           0
     17714 TIP3     127      TIP3     OH2      OT      -0.834000       15.9994           0
     17715 TIP3     127      TIP3     H1       HT       0.417000       1.00800           0
     17716 TIP3     127      TIP3     H2       HT       0.417000       1.00800           0
     17717 TIP3     128      TIP3     OH2      OT      -0.834000       15.9994           0
     17718 TIP3     128      TIP3     H1       HT       0.417000       1.00800           0
     17719 TIP3     128      TIP3     H2       HT       0.417000       1.00800           0
     17720 TIP3     129      TIP3     OH2      OT      -0.834000       15.9994           0
     17721 TIP3     129      TIP3     H1       HT       0.417000       1.00800           0
     17722 TIP3     129      TIP3     H2       HT       0.417000       1.00800           0
     17723 TIP3     130      TIP3     OH2      OT      -0.834000       15.9994           0
     17724 TIP3     130      TIP3     H1       HT       0.417000       1.00800           0
     17725 TIP3     130      TIP3     H2       HT       0.417000       1.00800           0
     17726 TIP3     131      TIP3     OH2      OT      -0.834000       15.9994           0
     17727 TIP3     131      TIP3     H1       HT       0.417000       1.00800           0
     17728 TIP3     131      TIP3     H2       HT       0.417000       1.00800           0
     17729 TIP3     132      TIP3     OH2      OT      -0.834000       15.9994           0
     17730 TIP3     132      TIP3     H1       HT       0.417000       1.00800           0
     17731 TIP3     132      TIP3     H2       HT       0.417000       1.00800           0
     17732 TIP3     133      TIP3     OH2      OT      -0.834000       15.9994           0
     17733 TIP3     133      TIP3     H1       HT       0.417000       1.00800           0
     17734 TIP3     133      TIP3     H2       HT       0.417000       1.00800           0
     17735 TIP3     134      TIP3     OH2      OT      -0.834000       15.9994           0
     17736 TIP3     134      TIP3     H1       HT       0.417000       1.00800           0
     17737 TIP3     134      TIP3     H2       HT       0.417000       1.00800           0
     17738 TIP3     135      TIP3     OH2      OT      -0.834000       15.9994           0
     17739 TIP3     135      TIP3     H1       HT       0.417000       1.00800           0
     17740 TIP3     135      TIP3     H2       HT       0.417000       1.00800           0
     17741 TIP3     136      TIP3     OH2      OT      -0.834000       15.9994           0
     17742 TIP3     136      TIP3     H1       HT       0.417000       1.00800           0
     17743 TIP3     136      TIP3     H2       HT       0.417000       1.00800           0
     17744 TIP3     137      TIP3     OH2      OT      -0.834000       15.9994           0
     17745 TIP3     137      TIP3     H1       HT       0.417000       1.00800           0
     17746 TIP3     137      TIP3     H2       HT       0.417000       1.00800           0
     17747 TIP3     138      TIP3     OH2      OT      -0.834000       15.9994           0
     17748 TIP3     138      TIP3     H1       HT       0.417000       1.00800           0
     17749 TIP3     138      TIP3     H2       HT       0.417000       1.00800           0
     17750 TIP3     139      TIP3     OH2      OT      -0.834000       15.9994           0
     17751 TIP3     139      TIP3     H1       HT       0.417000       1.00800           0
     17752 TIP3     139      TIP3     H2       HT       0.417000       1.00800           0
     17753 TIP3     140      TIP3     OH2      OT      -0.834000       15.9994           0
     17754 TIP3     140      TIP3     H1       HT       0.417000       1.00800           0
     17755 TIP3     140      TIP3     H2       HT       0.417000       1.00800           0
     17756 TIP3     141      TIP3     OH2      OT      -0.834000       15.9994           0
     17757 TIP3     141      TIP3     H1       HT       0.417000       1.00800           0
     17758 TIP3     141      TIP3     H2       HT       0.417000       1.00800           0
     17759 TIP3     142      TIP3     OH2      OT      -0.834000       15.9994           0
     17760 TIP3     142      TIP3     H1       HT       0.417000       1.00800           0
     17761 TIP3     142      TIP3     H2       HT       0.417000       1.00800           0
     17762 TIP3     143      TIP3     OH2      OT      -0.834000       15.9994           0
     17763 TIP3     143      TIP3     H1       HT       0.417000       1.00800           0
     17764 TIP3     143      TIP3     H2       HT       0.417000       1.00800           0
     17765 TIP3     144      TIP3     OH2      OT      -0.834000       15.9994           0
     17766 TIP3     144      TIP3     H1       HT       0.417000       1.00800           0
     17767 TIP3     144      TIP3     H2       HT       0.417000       1.00800           0
     17768 TIP3     145      TIP3     OH2      OT      -0.834000       15.9994           0
     17769 TIP3     145      TIP3     H1       HT       0.417000       1.00800           0
     17770 TIP3     145      TIP3     H2       HT       0.417000       1.00800           0
     17771 TIP3     146      TIP3     OH2      OT      -0.834000       15.9994           0
     17772 TIP3     146      TIP3     H1       HT       0.417000       1.00800           0
     17773 TIP3     146      TIP3     H2       HT       0.417000       1.00800           0
     17774 TIP3     147      TIP3     OH2      OT      -0.834000       15.9994           0
     17775 TIP3     147      TIP3     H1       HT       0.417000       1.00800           0
     17776 TIP3     147      TIP3     H2       HT       0.417000       1.00800           0
     17777 TIP3     148      TIP3     OH2      OT      -0.834000       15.9994           0
     17778 TIP3     148      TIP3     H1       HT       0.417000       1.00800           0
     17779 TIP3     148      TIP3     H2       HT       0.417000       1.00800           0
     17780 TIP3     149      TIP3     OH2      OT      -0.834000       15.9994           0
     17781 TIP3     149      TIP3     H1       HT       0.417000       1.00800           0
     17782 TIP3     149      TIP3     H2       HT       0.417000       1.00800           0
     17783 TIP3     150      TIP3     OH2      OT      -0.834000       15.9994           0
     17784 TIP3     150      TIP3     H1       HT       0.417000       1.00800           0
     17785 TIP3     150      TIP3     H2       HT       0.417000       1.00800           0
     17786 TIP3     151      TIP3     OH2      OT      -0.834000       15.9994           0
     17787 TIP3     151      TIP3     H1       HT       0.417000       1.00800           0
     17788 TIP3     151      TIP3     H2       HT       0.417000       1.00800           0
     17789 TIP3     152      TIP3     OH2      OT      -0.834000       15.9994           0
     17790 TIP3     152      TIP3     H1       HT       0.417000       1.00800           0
     17791 TIP3     152      TIP3     H2       HT       0.417000       1.00800           0
     17792 TIP3     153      TIP3     OH2      OT      -0.834000       15.9994           0
     17793 TIP3     153      TIP3     H1       HT       0.417000       1.00800           0
     17794 TIP3     153      TIP3     H2       HT       0.417000       1.00800           0
     17795 TIP3     154      TIP3     OH2      OT      -0.834000       15.9994           0
     17796 TIP3     154      TIP3     H1       HT       0.417000       1.00800           0
     17797 TIP3     154      TIP3     H2       HT       0.417000       1.00800           0
     17798 TIP3     155      TIP3     OH2      OT      -0.834000       15.9994           0
     17799 TIP3     155      TIP3     H1       HT       0.417000       1.00800           0
     17800 TIP3     155      TIP3     H2       HT       0.417000       1.00800           0
     17801 TIP3     156      TIP3     OH2      OT      -0.834000       15.9994           0
     17802 TIP3     156      TIP3     H1       HT       0.417000       1.00800           0
     17803 TIP3     156      TIP3     H2       HT       0.417000       1.00800           0
     17804 TIP3     157      TIP3     OH2      OT      -0.834000       15.9994           0
     17805 TIP3     157      TIP3     H1       HT       0.417000       1.00800           0
     17806 TIP3     157      TIP3     H2       HT       0.417000       1.00800           0
     17807 TIP3     158      TIP3     OH2      OT      -0.834000       15.9994           0
     17808 TIP3     158      TIP3     H1       HT       0.417000       1.00800           0
     17809 TIP3     158      TIP3     H2       HT       0.417000       1.00800           0
     17810 TIP3     159      TIP3     OH2      OT      -0.834000       15.9994           0
     17811 TIP3     159      TIP3     H1       HT       0.417000       1.00800           0
     17812 TIP3     159      TIP3     H2       HT       0.417000       1.00800           0
     17813 TIP3     160      TIP3     OH2      OT      -0.834000       15.9994           0
     17814 TIP3     160      TIP3     H1       HT       0.417000       1.00800           0
     17815 TIP3     160      TIP3     H2       HT       0.417000       1.00800           0
     17816 TIP3     161      TIP3     OH2      OT      -0.834000       15.9994           0
     17817 TIP3     161      TIP3     H1       HT       0.417000       1.00800           0
     17818 TIP3     161      TIP3     H2       HT       0.417000       1.00800           0
     17819 TIP3     162      TIP3     OH2      OT      -0.834000       15.9994           0
     17820 TIP3     162      TIP3     H1       HT       0.417000       1.00800           0
     17821 TIP3     162      TIP3     H2       HT       0.417000       1.00800           0
     17822 TIP3     163      TIP3     OH2      OT      -0.834000       15.9994           0
     17823 TIP3     163      TIP3     H1       HT       0.417000       1.00800           0
     17824 TIP3     163      TIP3     H2       HT       0.417000       1.00800           0
     17825 TIP3     164      TIP3     OH2      OT      -0.834000       15.9994           0
     17826 TIP3     164      TIP3     H1       HT       0.417000       1.00800           0
     17827 TIP3     164      TIP3     H2       HT       0.417000       1.00800           0
     17828 TIP3     165      TIP3     OH2      OT      -0.834000       15.9994           0
     17829 TIP3     165      TIP3     H1       HT       0.417000       1.00800           0
     17830 TIP3     165      TIP3     H2       HT       0.417000       1.00800           0
     17831 TIP3     166      TIP3     OH2      OT      -0.834000       15.9994           0
     17832 TIP3     166      TIP3     H1       HT       0.417000       1.00800           0
     17833 TIP3     166      TIP3     H2       HT       0.417000       1.00800           0
     17834 TIP3     167      TIP3     OH2      OT      -0.834000       15.9994           0
     17835 TIP3     167      TIP3     H1       HT       0.417000       1.00800           0
     17836 TIP3     167      TIP3     H2       HT       0.417000       1.00800           0
     17837 TIP3     168      TIP3     OH2      OT      -0.834000       15.9994           0
     17838 TIP3     168      TIP3     H1       HT       0.417000       1.00800           0
     17839 TIP3     168      TIP3     H2       HT       0.417000       1.00800           0
     17840 TIP3     169      TIP3     OH2      OT      -0.834000       15.9994           0
     17841 TIP3     169      TIP3     H1       HT       0.417000       1.00800           0
     17842 TIP3     169      TIP3     H2       HT       0.417000       1.00800           0
     17843 TIP3     170      TIP3     OH2      OT      -0.834000       15.9994           0
     17844 TIP3     170      TIP3     H1       HT       0.417000       1.00800           0
     17845 TIP3     170      TIP3     H2       HT       0.417000       1.00800           0
     17846 TIP3     171      TIP3     OH2      OT      -0.834000       15.9994           0
     17847 TIP3     171      TIP3     H1       HT       0.417000       1.00800           0
     17848 TIP3     171      TIP3     H2       HT       0.417000       1.00800           0
     17849 TIP3     172      TIP3     OH2      OT      -0.834000       15.9994           0
     17850 TIP3     172      TIP3     H1       HT       0.417000       1.00800           0
     17851 TIP3     172      TIP3     H2       HT       0.417000       1.00800           0
     17852 TIP3     173      TIP3     OH2      OT      -0.834000       15.9994           0
     17853 TIP3     173      TIP3     H1       HT       0.417000       1.00800           0
     17854 TIP3     173      TIP3     H2       HT       0.417000       1.00800           0
     17855 TIP3     174      TIP3     OH2      OT      -0.834000       15.9994           0
     17856 TIP3     174      TIP3     H1       HT       0.417000       1.00800           0
     17857 TIP3     174      TIP3     H2       HT       0.417000       1.00800           0
     17858 TIP3     175      TIP3     OH2      OT      -0.834000       15.9994           0
     17859 TIP3     175      TIP3     H1       HT       0.417000       1.00800           0
     17860 TIP3     175      TIP3     H2       HT       0.417000       1.00800           0
     17861 TIP3     176      TIP3     OH2      OT      -0.834000       15.9994           0
     17862 TIP3     176      TIP3     H1       HT       0.417000       1.00800           0
     17863 TIP3     176      TIP3     H2       HT       0.417000       1.00800           0
     17864 TIP3     177      TIP3     OH2      OT      -0.834000       15.9994           0
     17865 TIP3     177      TIP3     H1       HT       0.417000       1.00800           0
     17866 TIP3     177      TIP3     H2       HT       0.417000       1.00800           0
     17867 TIP3     178      TIP3     OH2      OT      -0.834000       15.9994           0
     17868 TIP3     178      TIP3     H1       HT       0.417000       1.00800           0
     17869 TIP3     178      TIP3     H2       HT       0.417000       1.00800           0
     17870 TIP3     179      TIP3     OH2      OT      -0.834000       15.9994           0
     17871 TIP3     179      TIP3     H1       HT       0.417000       1.00800           0
     17872 TIP3     179      TIP3     H2       HT       0.417000       1.00800           0
     17873 TIP3     180      TIP3     OH2      OT      -0.834000       15.9994           0
     17874 TIP3     180      TIP3     H1       HT       0.417000       1.00800           0
     17875 TIP3     180      TIP3     H2       HT       0.417000       1.00800           0
     17876 TIP3     181      TIP3     OH2      OT      -0.834000       15.9994           0
     17877 TIP3     181      TIP3     H1       HT       0.417000       1.00800           0
     17878 TIP3     181      TIP3     H2       HT       0.417000       1.00800           0
     17879 TIP3     182      TIP3     OH2      OT      -0.834000       15.9994           0
     17880 TIP3     182      TIP3     H1       HT       0.417000       1.00800           0
     17881 TIP3     182      TIP3     H2       HT       0.417000       1.00800           0
     17882 TIP3     183      TIP3     OH2      OT      -0.834000       15.9994           0
     17883 TIP3     183      TIP3     H1       HT       0.417000       1.00800           0
     17884 TIP3     183      TIP3     H2       HT       0.417000       1.00800           0
     17885 TIP3     184      TIP3     OH2      OT      -0.834000       15.9994           0
     17886 TIP3     184      TIP3     H1       HT       0.417000       1.00800           0
     17887 TIP3     184      TIP3     H2       HT       0.417000       1.00800           0
     17888 TIP3     185      TIP3     OH2      OT      -0.834000       15.9994           0
     17889 TIP3     185      TIP3     H1       HT       0.417000       1.00800           0
     17890 TIP3     185      TIP3     H2       HT       0.417000       1.00800           0
     17891 TIP3     186      TIP3     OH2      OT      -0.834000       15.9994           0
     17892 TIP3     186      TIP3     H1       HT       0.417000       1.00800           0
     17893 TIP3     186      TIP3     H2       HT       0.417000       1.00800           0
     17894 TIP3     187      TIP3     OH2      OT      -0.834000       15.9994           0
     17895 TIP3     187      TIP3     H1       HT       0.417000       1.00800           0
     17896 TIP3     187      TIP3     H2       HT       0.417000       1.00800           0
     17897 TIP3     188      TIP3     OH2      OT      -0.834000       15.9994           0
     17898 TIP3     188      TIP3     H1       HT       0.417000       1.00800           0
     17899 TIP3     188      TIP3     H2       HT       0.417000       1.00800           0
     17900 TIP3     189      TIP3     OH2      OT      -0.834000       15.9994           0
     17901 TIP3     189      TIP3     H1       HT       0.417000       1.00800           0
     17902 TIP3     189      TIP3     H2       HT       0.417000       1.00800           0
     17903 TIP3     190      TIP3     OH2      OT      -0.834000       15.9994           0
     17904 TIP3     190      TIP3     H1       HT       0.417000       1.00800           0
     17905 TIP3     190      TIP3     H2       HT       0.417000       1.00800           0
     17906 TIP3     191      TIP3     OH2      OT      -0.834000       15.9994           0
     17907 TIP3     191      TIP3     H1       HT       0.417000       1.00800           0
     17908 TIP3     191      TIP3     H2       HT       0.417000       1.00800           0
     17909 TIP3     192      TIP3     OH2      OT      -0.834000       15.9994           0
     17910 TIP3     192      TIP3     H1       HT       0.417000       1.00800           0
     17911 TIP3     192      TIP3     H2       HT       0.417000       1.00800           0
     17912 TIP3     193      TIP3     OH2      OT      -0.834000       15.9994           0
     17913 TIP3     193      TIP3     H1       HT       0.417000       1.00800           0
     17914 TIP3     193      TIP3     H2       HT       0.417000       1.00800           0
     17915 TIP3     194      TIP3     OH2      OT      -0.834000       15.9994           0
     17916 TIP3     194      TIP3     H1       HT       0.417000       1.00800           0
     17917 TIP3     194      TIP3     H2       HT       0.417000       1.00800           0
     17918 TIP3     195      TIP3     OH2      OT      -0.834000       15.9994           0
     17919 TIP3     195      TIP3     H1       HT       0.417000       1.00800           0
     17920 TIP3     195      TIP3     H2       HT       0.417000       1.00800           0
     17921 TIP3     196      TIP3     OH2      OT      -0.834000       15.9994           0
     17922 TIP3     196      TIP3     H1       HT       0.417000       1.00800           0
     17923 TIP3     196      TIP3     H2       HT       0.417000       1.00800           0
     17924 TIP3     197      TIP3     OH2      OT      -0.834000       15.9994           0
     17925 TIP3     197      TIP3     H1       HT       0.417000       1.00800           0
     17926 TIP3     197      TIP3     H2       HT       0.417000       1.00800           0
     17927 TIP3     198      TIP3     OH2      OT      -0.834000       15.9994           0
     17928 TIP3     198      TIP3     H1       HT       0.417000       1.00800           0
     17929 TIP3     198      TIP3     H2       HT       0.417000       1.00800           0
     17930 TIP3     199      TIP3     OH2      OT      -0.834000       15.9994           0
     17931 TIP3     199      TIP3     H1       HT       0.417000       1.00800           0
     17932 TIP3     199      TIP3     H2       HT       0.417000       1.00800           0
     17933 TIP3     200      TIP3     OH2      OT      -0.834000       15.9994           0
     17934 TIP3     200      TIP3     H1       HT       0.417000       1.00800           0
     17935 TIP3     200      TIP3     H2       HT       0.417000       1.00800           0
     17936 TIP3     201      TIP3     OH2      OT      -0.834000       15.9994           0
     17937 TIP3     201      TIP3     H1       HT       0.417000       1.00800           0
     17938 TIP3     201      TIP3     H2       HT       0.417000       1.00800           0
     17939 TIP3     202      TIP3     OH2      OT      -0.834000       15.9994           0
     17940 TIP3     202      TIP3     H1       HT       0.417000       1.00800           0
     17941 TIP3     202      TIP3     H2       HT       0.417000       1.00800           0
     17942 TIP3     203      TIP3     OH2      OT      -0.834000       15.9994           0
     17943 TIP3     203      TIP3     H1       HT       0.417000       1.00800           0
     17944 TIP3     203      TIP3     H2       HT       0.417000       1.00800           0
     17945 TIP3     204      TIP3     OH2      OT      -0.834000       15.9994           0
     17946 TIP3     204      TIP3     H1       HT       0.417000       1.00800           0
     17947 TIP3     204      TIP3     H2       HT       0.417000       1.00800           0
     17948 TIP3     205      TIP3     OH2      OT      -0.834000       15.9994           0
     17949 TIP3     205      TIP3     H1       HT       0.417000       1.00800           0
     17950 TIP3     205      TIP3     H2       HT       0.417000       1.00800           0
     17951 TIP3     206      TIP3     OH2      OT      -0.834000       15.9994           0
     17952 TIP3     206      TIP3     H1       HT       0.417000       1.00800           0
     17953 TIP3     206      TIP3     H2       HT       0.417000       1.00800           0
     17954 TIP3     207      TIP3     OH2      OT      -0.834000       15.9994           0
     17955 TIP3     207      TIP3     H1       HT       0.417000       1.00800           0
     17956 TIP3     207      TIP3     H2       HT       0.417000       1.00800           0
     17957 TIP3     208      TIP3     OH2      OT      -0.834000       15.9994           0
     17958 TIP3     208      TIP3     H1       HT       0.417000       1.00800           0
     17959 TIP3     208      TIP3     H2       HT       0.417000       1.00800           0
     17960 TIP3     209      TIP3     OH2      OT      -0.834000       15.9994           0
     17961 TIP3     209      TIP3     H1       HT       0.417000       1.00800           0
     17962 TIP3     209      TIP3     H2       HT       0.417000       1.00800           0
     17963 TIP3     210      TIP3     OH2      OT      -0.834000       15.9994           0
     17964 TIP3     210      TIP3     H1       HT       0.417000       1.00800           0
     17965 TIP3     210      TIP3     H2       HT       0.417000       1.00800           0
     17966 TIP3     211      TIP3     OH2      OT      -0.834000       15.9994           0
     17967 TIP3     211      TIP3     H1       HT       0.417000       1.00800           0
     17968 TIP3     211      TIP3     H2       HT       0.417000       1.00800           0
     17969 TIP3     212      TIP3     OH2      OT      -0.834000       15.9994           0
     17970 TIP3     212      TIP3     H1       HT       0.417000       1.00800           0
     17971 TIP3     212      TIP3     H2       HT       0.417000       1.00800           0
     17972 TIP3     213      TIP3     OH2      OT      -0.834000       15.9994           0
     17973 TIP3     213      TIP3     H1       HT       0.417000       1.00800           0
     17974 TIP3     213      TIP3     H2       HT       0.417000       1.00800           0
     17975 TIP3     214      TIP3     OH2      OT      -0.834000       15.9994           0
     17976 TIP3     214      TIP3     H1       HT       0.417000       1.00800           0
     17977 TIP3     214      TIP3     H2       HT       0.417000       1.00800           0
     17978 TIP3     215      TIP3     OH2      OT      -0.834000       15.9994           0
     17979 TIP3     215      TIP3     H1       HT       0.417000       1.00800           0
     17980 TIP3     215      TIP3     H2       HT       0.417000       1.00800           0
     17981 TIP3     216      TIP3     OH2      OT      -0.834000       15.9994           0
     17982 TIP3     216      TIP3     H1       HT       0.417000       1.00800           0
     17983 TIP3     216      TIP3     H2       HT       0.417000       1.00800           0
     17984 TIP3     217      TIP3     OH2      OT      -0.834000       15.9994           0
     17985 TIP3     217      TIP3     H1       HT       0.417000       1.00800           0
     17986 TIP3     217      TIP3     H2       HT       0.417000       1.00800           0
     17987 TIP3     218      TIP3     OH2      OT      -0.834000       15.9994           0
     17988 TIP3     218      TIP3     H1       HT       0.417000       1.00800           0
     17989 TIP3     218      TIP3     H2       HT       0.417000       1.00800           0
     17990 TIP3     219      TIP3     OH2      OT      -0.834000       15.9994           0
     17991 TIP3     219      TIP3     H1       HT       0.417000       1.00800           0
     17992 TIP3     219      TIP3     H2       HT       0.417000       1.00800           0
     17993 TIP3     220      TIP3     OH2      OT      -0.834000       15.9994           0
     17994 TIP3     220      TIP3     H1       HT       0.417000       1.00800           0
     17995 TIP3     220      TIP3     H2       HT       0.417000       1.00800           0
     17996 TIP3     221      TIP3     OH2      OT      -0.834000       15.9994           0
     17997 TIP3     221      TIP3     H1       HT       0.417000       1.00800           0
     17998 TIP3     221      TIP3     H2       HT       0.417000       1.00800           0
     17999 TIP3     222      TIP3     OH2      OT      -0.834000       15.9994           0
     18000 TIP3     222      TIP3     H1       HT       0.417000       1.00800           0
     18001 TIP3     222      TIP3     H2       HT       0.417000       1.00800           0
     18002 TIP3     223      TIP3     OH2      OT      -0.834000       15.9994           0
     18003 TIP3     223      TIP3     H1       HT       0.417000       1.00800           0
     18004 TIP3     223      TIP3     H2       HT       0.417000       1.00800           0
     18005 TIP3     224      TIP3     OH2      OT      -0.834000       15.9994           0
     18006 TIP3     224      TIP3     H1       HT       0.417000       1.00800           0
     18007 TIP3     224      TIP3     H2       HT       0.417000       1.00800           0
     18008 TIP3     225      TIP3     OH2      OT      -0.834000       15.9994           0
     18009 TIP3     225      TIP3     H1       HT       0.417000       1.00800           0
     18010 TIP3     225      TIP3     H2       HT       0.417000       1.00800           0
     18011 TIP3     226      TIP3     OH2      OT      -0.834000       15.9994           0
     18012 TIP3     226      TIP3     H1       HT       0.417000       1.00800           0
     18013 TIP3     226      TIP3     H2       HT       0.417000       1.00800           0
     18014 TIP3     227      TIP3     OH2      OT      -0.834000       15.9994           0
     18015 TIP3     227      TIP3     H1       HT       0.417000       1.00800           0
     18016 TIP3     227      TIP3     H2       HT       0.417000       1.00800           0
     18017 TIP3     228      TIP3     OH2      OT      -0.834000       15.9994           0
     18018 TIP3     228      TIP3     H1       HT       0.417000       1.00800           0
     18019 TIP3     228      TIP3     H2       HT       0.417000       1.00800           0
     18020 TIP3     229      TIP3     OH2      OT      -0.834000       15.9994           0
     18021 TIP3     229      TIP3     H1       HT       0.417000       1.00800           0
     18022 TIP3     229      TIP3     H2       HT       0.417000       1.00800           0
     18023 TIP3     230      TIP3     OH2      OT      -0.834000       15.9994           0
     18024 TIP3     230      TIP3     H1       HT       0.417000       1.00800           0
     18025 TIP3     230      TIP3     H2       HT       0.417000       1.00800           0
     18026 TIP3     231      TIP3     OH2      OT      -0.834000       15.9994           0
     18027 TIP3     231      TIP3     H1       HT       0.417000       1.00800           0
     18028 TIP3     231      TIP3     H2       HT       0.417000       1.00800           0
     18029 TIP3     232      TIP3     OH2      OT      -0.834000       15.9994           0
     18030 TIP3     232      TIP3     H1       HT       0.417000       1.00800           0
     18031 TIP3     232      TIP3     H2       HT       0.417000       1.00800           0
     18032 TIP3     233      TIP3     OH2      OT      -0.834000       15.9994           0
     18033 TIP3     233      TIP3     H1       HT       0.417000       1.00800           0
     18034 TIP3     233      TIP3     H2       HT       0.417000       1.00800           0
     18035 TIP3     234      TIP3     OH2      OT      -0.834000       15.9994           0
     18036 TIP3     234      TIP3     H1       HT       0.417000       1.00800           0
     18037 TIP3     234      TIP3     H2       HT       0.417000       1.00800           0
     18038 TIP3     235      TIP3     OH2      OT      -0.834000       15.9994           0
     18039 TIP3     235      TIP3     H1       HT       0.417000       1.00800           0
     18040 TIP3     235      TIP3     H2       HT       0.417000       1.00800           0
     18041 TIP3     236      TIP3     OH2      OT      -0.834000       15.9994           0
     18042 TIP3     236      TIP3     H1       HT       0.417000       1.00800           0
     18043 TIP3     236      TIP3     H2       HT       0.417000       1.00800           0
     18044 TIP3     237      TIP3     OH2      OT      -0.834000       15.9994           0
     18045 TIP3     237      TIP3     H1       HT       0.417000       1.00800           0
     18046 TIP3     237      TIP3     H2       HT       0.417000       1.00800           0
     18047 TIP3     238      TIP3     OH2      OT      -0.834000       15.9994           0
     18048 TIP3     238      TIP3     H1       HT       0.417000       1.00800           0
     18049 TIP3     238      TIP3     H2       HT       0.417000       1.00800           0
     18050 TIP3     239      TIP3     OH2      OT      -0.834000       15.9994           0
     18051 TIP3     239      TIP3     H1       HT       0.417000       1.00800           0
     18052 TIP3     239      TIP3     H2       HT       0.417000       1.00800           0
     18053 TIP3     240      TIP3     OH2      OT      -0.834000       15.9994           0
     18054 TIP3     240      TIP3     H1       HT       0.417000       1.00800           0
     18055 TIP3     240      TIP3     H2       HT       0.417000       1.00800           0
     18056 TIP3     241      TIP3     OH2      OT      -0.834000       15.9994           0
     18057 TIP3     241      TIP3     H1       HT       0.417000       1.00800           0
     18058 TIP3     241      TIP3     H2       HT       0.417000       1.00800           0
     18059 TIP3     242      TIP3     OH2      OT      -0.834000       15.9994           0
     18060 TIP3     242      TIP3     H1       HT       0.417000       1.00800           0
     18061 TIP3     242      TIP3     H2       HT       0.417000       1.00800           0
     18062 TIP3     243      TIP3     OH2      OT      -0.834000       15.9994           0
     18063 TIP3     243      TIP3     H1       HT       0.417000       1.00800           0
     18064 TIP3     243      TIP3     H2       HT       0.417000       1.00800           0
     18065 TIP3     244      TIP3     OH2      OT      -0.834000       15.9994           0
     18066 TIP3     244      TIP3     H1       HT       0.417000       1.00800           0
     18067 TIP3     244      TIP3     H2       HT       0.417000       1.00800           0
     18068 TIP3     245      TIP3     OH2      OT      -0.834000       15.9994           0
     18069 TIP3     245      TIP3     H1       HT       0.417000       1.00800           0
     18070 TIP3     245      TIP3     H2       HT       0.417000       1.00800           0
     18071 TIP3     246      TIP3     OH2      OT      -0.834000       15.9994           0
     18072 TIP3     246      TIP3     H1       HT       0.417000       1.00800           0
     18073 TIP3     246      TIP3     H2       HT       0.417000       1.00800           0
     18074 TIP3     247      TIP3     OH2      OT      -0.834000       15.9994           0
     18075 TIP3     247      TIP3     H1       HT       0.417000       1.00800           0
     18076 TIP3     247      TIP3     H2       HT       0.417000       1.00800           0
     18077 TIP3     248      TIP3     OH2      OT      -0.834000       15.9994           0
     18078 TIP3     248      TIP3     H1       HT       0.417000       1.00800           0
     18079 TIP3     248      TIP3     H2       HT       0.417000       1.00800           0
     18080 TIP3     249      TIP3     OH2      OT      -0.834000       15.9994           0
     18081 TIP3     249      TIP3     H1       HT       0.417000       1.00800           0
     18082 TIP3     249      TIP3     H2       HT       0.417000       1.00800           0
     18083 TIP3     250      TIP3     OH2      OT      -0.834000       15.9994           0
     18084 TIP3     250      TIP3     H1       HT       0.417000       1.00800           0
     18085 TIP3     250      TIP3     H2       HT       0.417000       1.00800           0
     18086 TIP3     251      TIP3     OH2      OT      -0.834000       15.9994           0
     18087 TIP3     251      TIP3     H1       HT       0.417000       1.00800           0
     18088 TIP3     251      TIP3     H2       HT       0.417000       1.00800           0
     18089 TIP3     252      TIP3     OH2      OT      -0.834000       15.9994           0
     18090 TIP3     252      TIP3     H1       HT       0.417000       1.00800           0
     18091 TIP3     252      TIP3     H2       HT       0.417000       1.00800           0
     18092 TIP3     253      TIP3     OH2      OT      -0.834000       15.9994           0
     18093 TIP3     253      TIP3     H1       HT       0.417000       1.00800           0
     18094 TIP3     253      TIP3     H2       HT       0.417000       1.00800           0
     18095 TIP3     254      TIP3     OH2      OT      -0.834000       15.9994           0
     18096 TIP3     254      TIP3     H1       HT       0.417000       1.00800           0
     18097 TIP3     254      TIP3     H2       HT       0.417000       1.00800           0
     18098 TIP3     255      TIP3     OH2      OT      -0.834000       15.9994           0
     18099 TIP3     255      TIP3     H1       HT       0.417000       1.00800           0
     18100 TIP3     255      TIP3     H2       HT       0.417000       1.00800           0
     18101 TIP3     256      TIP3     OH2      OT      -0.834000       15.9994           0
     18102 TIP3     256      TIP3     H1       HT       0.417000       1.00800           0
     18103 TIP3     256      TIP3     H2       HT       0.417000       1.00800           0
     18104 TIP3     257      TIP3     OH2      OT      -0.834000       15.9994           0
     18105 TIP3     257      TIP3     H1       HT       0.417000       1.00800           0
     18106 TIP3     257      TIP3     H2       HT       0.417000       1.00800           0
     18107 TIP3     258      TIP3     OH2      OT      -0.834000       15.9994           0
     18108 TIP3     258      TIP3     H1       HT       0.417000       1.00800           0
     18109 TIP3     258      TIP3     H2       HT       0.417000       1.00800           0
     18110 TIP3     259      TIP3     OH2      OT      -0.834000       15.9994           0
     18111 TIP3     259      TIP3     H1       HT       0.417000       1.00800           0
     18112 TIP3     259      TIP3     H2       HT       0.417000       1.00800           0
     18113 TIP3     260      TIP3     OH2      OT      -0.834000       15.9994           0
     18114 TIP3     260      TIP3     H1       HT       0.417000       1.00800           0
     18115 TIP3     260      TIP3     H2       HT       0.417000       1.00800           0
     18116 TIP3     261      TIP3     OH2      OT      -0.834000       15.9994           0
     18117 TIP3     261      TIP3     H1       HT       0.417000       1.00800           0
     18118 TIP3     261      TIP3     H2       HT       0.417000       1.00800           0
     18119 TIP3     262      TIP3     OH2      OT      -0.834000       15.9994           0
     18120 TIP3     262      TIP3     H1       HT       0.417000       1.00800           0
     18121 TIP3     262      TIP3     H2       HT       0.417000       1.00800           0
     18122 TIP3     263      TIP3     OH2      OT      -0.834000       15.9994           0
     18123 TIP3     263      TIP3     H1       HT       0.417000       1.00800           0
     18124 TIP3     263      TIP3     H2       HT       0.417000       1.00800           0
     18125 TIP3     264      TIP3     OH2      OT      -0.834000       15.9994           0
     18126 TIP3     264      TIP3     H1       HT       0.417000       1.00800           0
     18127 TIP3     264      TIP3     H2       HT       0.417000       1.00800           0
     18128 TIP3     265      TIP3     OH2      OT      -0.834000       15.9994           0
     18129 TIP3     265      TIP3     H1       HT       0.417000       1.00800           0
     18130 TIP3     265      TIP3     H2       HT       0.417000       1.00800           0
     18131 TIP3     266      TIP3     OH2      OT      -0.834000       15.9994           0
     18132 TIP3     266      TIP3     H1       HT       0.417000       1.00800           0
     18133 TIP3     266      TIP3     H2       HT       0.417000       1.00800           0
     18134 TIP3     267      TIP3     OH2      OT      -0.834000       15.9994           0
     18135 TIP3     267      TIP3     H1       HT       0.417000       1.00800           0
     18136 TIP3     267      TIP3     H2       HT       0.417000       1.00800           0
     18137 TIP3     268      TIP3     OH2      OT      -0.834000       15.9994           0
     18138 TIP3     268      TIP3     H1       HT       0.417000       1.00800           0
     18139 TIP3     268      TIP3     H2       HT       0.417000       1.00800           0
     18140 TIP3     269      TIP3     OH2      OT      -0.834000       15.9994           0
     18141 TIP3     269      TIP3     H1       HT       0.417000       1.00800           0
     18142 TIP3     269      TIP3     H2       HT       0.417000       1.00800           0
     18143 TIP3     270      TIP3     OH2      OT      -0.834000       15.9994           0
     18144 TIP3     270      TIP3     H1       HT       0.417000       1.00800           0
     18145 TIP3     270      TIP3     H2       HT       0.417000       1.00800           0
     18146 TIP3     271      TIP3     OH2      OT      -0.834000       15.9994           0
     18147 TIP3     271      TIP3     H1       HT       0.417000       1.00800           0
     18148 TIP3     271      TIP3     H2       HT       0.417000       1.00800           0
     18149 TIP3     272      TIP3     OH2      OT      -0.834000       15.9994           0
     18150 TIP3     272      TIP3     H1       HT       0.417000       1.00800           0
     18151 TIP3     272      TIP3     H2       HT       0.417000       1.00800           0
     18152 TIP3     273      TIP3     OH2      OT      -0.834000       15.9994           0
     18153 TIP3     273      TIP3     H1       HT       0.417000       1.00800           0
     18154 TIP3     273      TIP3     H2       HT       0.417000       1.00800           0
     18155 TIP3     274      TIP3     OH2      OT      -0.834000       15.9994           0
     18156 TIP3     274      TIP3     H1       HT       0.417000       1.00800           0
     18157 TIP3     274      TIP3     H2       HT       0.417000       1.00800           0
     18158 TIP3     275      TIP3     OH2      OT      -0.834000       15.9994           0
     18159 TIP3     275      TIP3     H1       HT       0.417000       1.00800           0
     18160 TIP3     275      TIP3     H2       HT       0.417000       1.00800           0
     18161 TIP3     276      TIP3     OH2      OT      -0.834000       15.9994           0
     18162 TIP3     276      TIP3     H1       HT       0.417000       1.00800           0
     18163 TIP3     276      TIP3     H2       HT       0.417000       1.00800           0
     18164 TIP3     277      TIP3     OH2      OT      -0.834000       15.9994           0
     18165 TIP3     277      TIP3     H1       HT       0.417000       1.00800           0
     18166 TIP3     277      TIP3     H2       HT       0.417000       1.00800           0
     18167 TIP3     278      TIP3     OH2      OT      -0.834000       15.9994           0
     18168 TIP3     278      TIP3     H1       HT       0.417000       1.00800           0
     18169 TIP3     278      TIP3     H2       HT       0.417000       1.00800           0
     18170 TIP3     279      TIP3     OH2      OT      -0.834000       15.9994           0
     18171 TIP3     279      TIP3     H1       HT       0.417000       1.00800           0
     18172 TIP3     279      TIP3     H2       HT       0.417000       1.00800           0
     18173 TIP3     280      TIP3     OH2      OT      -0.834000       15.9994           0
     18174 TIP3     280      TIP3     H1       HT       0.417000       1.00800           0
     18175 TIP3     280      TIP3     H2       HT       0.417000       1.00800           0
     18176 TIP3     281      TIP3     OH2      OT      -0.834000       15.9994           0
     18177 TIP3     281      TIP3     H1       HT       0.417000       1.00800           0
     18178 TIP3     281      TIP3     H2       HT       0.417000       1.00800           0
     18179 TIP3     282      TIP3     OH2      OT      -0.834000       15.9994           0
     18180 TIP3     282      TIP3     H1       HT       0.417000       1.00800           0
     18181 TIP3     282      TIP3     H2       HT       0.417000       1.00800           0
     18182 TIP3     283      TIP3     OH2      OT      -0.834000       15.9994           0
     18183 TIP3     283      TIP3     H1       HT       0.417000       1.00800           0
     18184 TIP3     283      TIP3     H2       HT       0.417000       1.00800           0
     18185 TIP3     284      TIP3     OH2      OT      -0.834000       15.9994           0
     18186 TIP3     284      TIP3     H1       HT       0.417000       1.00800           0
     18187 TIP3     284      TIP3     H2       HT       0.417000       1.00800           0
     18188 TIP3     285      TIP3     OH2      OT      -0.834000       15.9994           0
     18189 TIP3     285      TIP3     H1       HT       0.417000       1.00800           0
     18190 TIP3     285      TIP3     H2       HT       0.417000       1.00800           0
     18191 TIP3     286      TIP3     OH2      OT      -0.834000       15.9994           0
     18192 TIP3     286      TIP3     H1       HT       0.417000       1.00800           0
     18193 TIP3     286      TIP3     H2       HT       0.417000       1.00800           0
     18194 TIP3     287      TIP3     OH2      OT      -0.834000       15.9994           0
     18195 TIP3     287      TIP3     H1       HT       0.417000       1.00800           0
     18196 TIP3     287      TIP3     H2       HT       0.417000       1.00800           0
     18197 TIP3     288      TIP3     OH2      OT      -0.834000       15.9994           0
     18198 TIP3     288      TIP3     H1       HT       0.417000       1.00800           0
     18199 TIP3     288      TIP3     H2       HT       0.417000       1.00800           0
     18200 TIP3     289      TIP3     OH2      OT      -0.834000       15.9994           0
     18201 TIP3     289      TIP3     H1       HT       0.417000       1.00800           0
     18202 TIP3     289      TIP3     H2       HT       0.417000       1.00800           0
     18203 TIP3     290      TIP3     OH2      OT      -0.834000       15.9994           0
     18204 TIP3     290      TIP3     H1       HT       0.417000       1.00800           0
     18205 TIP3     290      TIP3     H2       HT       0.417000       1.00800           0
     18206 TIP3     291      TIP3     OH2      OT      -0.834000       15.9994           0
     18207 TIP3     291      TIP3     H1       HT       0.417000       1.00800           0
     18208 TIP3     291      TIP3     H2       HT       0.417000       1.00800           0
     18209 TIP3     292      TIP3     OH2      OT      -0.834000       15.9994           0
     18210 TIP3     292      TIP3     H1       HT       0.417000       1.00800           0
     18211 TIP3     292      TIP3     H2       HT       0.417000       1.00800           0
     18212 TIP3     293      TIP3     OH2      OT      -0.834000       15.9994           0
     18213 TIP3     293      TIP3     H1       HT       0.417000       1.00800           0
     18214 TIP3     293      TIP3     H2       HT       0.417000       1.00800           0
     18215 TIP3     294      TIP3     OH2      OT      -0.834000       15.9994           0
     18216 TIP3     294      TIP3     H1       HT       0.417000       1.00800           0
     18217 TIP3     294      TIP3     H2       HT       0.417000       1.00800           0
     18218 TIP3     295      TIP3     OH2      OT      -0.834000       15.9994           0
     18219 TIP3     295      TIP3     H1       HT       0.417000       1.00800           0
     18220 TIP3     295      TIP3     H2       HT       0.417000       1.00800           0
     18221 TIP3     296      TIP3     OH2      OT      -0.834000       15.9994           0
     18222 TIP3     296      TIP3     H1       HT       0.417000       1.00800           0
     18223 TIP3     296      TIP3     H2       HT       0.417000       1.00800           0
     18224 TIP3     297      TIP3     OH2      OT      -0.834000       15.9994           0
     18225 TIP3     297      TIP3     H1       HT       0.417000       1.00800           0
     18226 TIP3     297      TIP3     H2       HT       0.417000       1.00800           0
     18227 TIP3     298      TIP3     OH2      OT      -0.834000       15.9994           0
     18228 TIP3     298      TIP3     H1       HT       0.417000       1.00800           0
     18229 TIP3     298      TIP3     H2       HT       0.417000       1.00800           0
     18230 TIP3     299      TIP3     OH2      OT      -0.834000       15.9994           0
     18231 TIP3     299      TIP3     H1       HT       0.417000       1.00800           0
     18232 TIP3     299      TIP3     H2       HT       0.417000       1.00800           0
     18233 TIP3     300      TIP3     OH2      OT      -0.834000       15.9994           0
     18234 TIP3     300      TIP3     H1       HT       0.417000       1.00800           0
     18235 TIP3     300      TIP3     H2       HT       0.417000       1.00800           0
     18236 TIP3     301      TIP3     OH2      OT      -0.834000       15.9994           0
     18237 TIP3     301      TIP3     H1       HT       0.417000       1.00800           0
     18238 TIP3     301      TIP3     H2       HT       0.417000       1.00800           0
     18239 TIP3     302      TIP3     OH2      OT      -0.834000       15.9994           0
     18240 TIP3     302      TIP3     H1       HT       0.417000       1.00800           0
     18241 TIP3     302      TIP3     H2       HT       0.417000       1.00800           0
     18242 TIP3     303      TIP3     OH2      OT      -0.834000       15.9994           0
     18243 TIP3     303      TIP3     H1       HT       0.417000       1.00800           0
     18244 TIP3     303      TIP3     H2       HT       0.417000       1.00800           0
     18245 TIP3     304      TIP3     OH2      OT      -0.834000       15.9994           0
     18246 TIP3     304      TIP3     H1       HT       0.417000       1.00800           0
     18247 TIP3     304      TIP3     H2       HT       0.417000       1.00800           0
     18248 TIP3     305      TIP3     OH2      OT      -0.834000       15.9994           0
     18249 TIP3     305      TIP3     H1       HT       0.417000       1.00800           0
     18250 TIP3     305      TIP3     H2       HT       0.417000       1.00800           0
     18251 TIP3     306      TIP3     OH2      OT      -0.834000       15.9994           0
     18252 TIP3     306      TIP3     H1       HT       0.417000       1.00800           0
     18253 TIP3     306      TIP3     H2       HT       0.417000       1.00800           0
     18254 TIP3     307      TIP3     OH2      OT      -0.834000       15.9994           0
     18255 TIP3     307      TIP3     H1       HT       0.417000       1.00800           0
     18256 TIP3     307      TIP3     H2       HT       0.417000       1.00800           0
     18257 TIP3     308      TIP3     OH2      OT      -0.834000       15.9994           0
     18258 TIP3     308      TIP3     H1       HT       0.417000       1.00800           0
     18259 TIP3     308      TIP3     H2       HT       0.417000       1.00800           0
     18260 TIP3     309      TIP3     OH2      OT      -0.834000       15.9994           0
     18261 TIP3     309      TIP3     H1       HT       0.417000       1.00800           0
     18262 TIP3     309      TIP3     H2       HT       0.417000       1.00800           0
     18263 TIP3     310      TIP3     OH2      OT      -0.834000       15.9994           0
     18264 TIP3     310      TIP3     H1       HT       0.417000       1.00800           0
     18265 TIP3     310      TIP3     H2       HT       0.417000       1.00800           0
     18266 TIP3     311      TIP3     OH2      OT      -0.834000       15.9994           0
     18267 TIP3     311      TIP3     H1       HT       0.417000       1.00800           0
     18268 TIP3     311      TIP3     H2       HT       0.417000       1.00800           0
     18269 TIP3     312      TIP3     OH2      OT      -0.834000       15.9994           0
     18270 TIP3     312      TIP3     H1       HT       0.417000       1.00800           0
     18271 TIP3     312      TIP3     H2       HT       0.417000       1.00800           0
     18272 TIP3     313      TIP3     OH2      OT      -0.834000       15.9994           0
     18273 TIP3     313      TIP3     H1       HT       0.417000       1.00800           0
     18274 TIP3     313      TIP3     H2       HT       0.417000       1.00800           0
     18275 TIP3     314      TIP3     OH2      OT      -0.834000       15.9994           0
     18276 TIP3     314      TIP3     H1       HT       0.417000       1.00800           0
     18277 TIP3     314      TIP3     H2       HT       0.417000       1.00800           0
     18278 TIP3     315      TIP3     OH2      OT      -0.834000       15.9994           0
     18279 TIP3     315      TIP3     H1       HT       0.417000       1.00800           0
     18280 TIP3     315      TIP3     H2       HT       0.417000       1.00800           0
     18281 TIP3     316      TIP3     OH2      OT      -0.834000       15.9994           0
     18282 TIP3     316      TIP3     H1       HT       0.417000       1.00800           0
     18283 TIP3     316      TIP3     H2       HT       0.417000       1.00800           0
     18284 TIP3     317      TIP3     OH2      OT      -0.834000       15.9994           0
     18285 TIP3     317      TIP3     H1       HT       0.417000       1.00800           0
     18286 TIP3     317      TIP3     H2       HT       0.417000       1.00800           0
     18287 TIP3     318      TIP3     OH2      OT      -0.834000       15.9994           0
     18288 TIP3     318      TIP3     H1       HT       0.417000       1.00800           0
     18289 TIP3     318      TIP3     H2       HT       0.417000       1.00800           0
     18290 TIP3     319      TIP3     OH2      OT      -0.834000       15.9994           0
     18291 TIP3     319      TIP3     H1       HT       0.417000       1.00800           0
     18292 TIP3     319      TIP3     H2       HT       0.417000       1.00800           0
     18293 TIP3     320      TIP3     OH2      OT      -0.834000       15.9994           0
     18294 TIP3     320      TIP3     H1       HT       0.417000       1.00800           0
     18295 TIP3     320      TIP3     H2       HT       0.417000       1.00800           0
     18296 TIP3     321      TIP3     OH2      OT      -0.834000       15.9994           0
     18297 TIP3     321      TIP3     H1       HT       0.417000       1.00800           0
     18298 TIP3     321      TIP3     H2       HT       0.417000       1.00800           0
     18299 TIP3     322      TIP3     OH2      OT      -0.834000       15.9994           0
     18300 TIP3     322      TIP3     H1       HT       0.417000       1.00800           0
     18301 TIP3     322      TIP3     H2       HT       0.417000       1.00800           0
     18302 TIP3     323      TIP3     OH2      OT      -0.834000       15.9994           0
     18303 TIP3     323      TIP3     H1       HT       0.417000       1.00800           0
     18304 TIP3     323      TIP3     H2       HT       0.417000       1.00800           0
     18305 TIP3     324      TIP3     OH2      OT      -0.834000       15.9994           0
     18306 TIP3     324      TIP3     H1       HT       0.417000       1.00800           0
     18307 TIP3     324      TIP3     H2       HT       0.417000       1.00800           0
     18308 TIP3     325      TIP3     OH2      OT      -0.834000       15.9994           0
     18309 TIP3     325      TIP3     H1       HT       0.417000       1.00800           0
     18310 TIP3     325      TIP3     H2       HT       0.417000       1.00800           0
     18311 TIP3     326      TIP3     OH2      OT      -0.834000       15.9994           0
     18312 TIP3     326      TIP3     H1       HT       0.417000       1.00800           0
     18313 TIP3     326      TIP3     H2       HT       0.417000       1.00800           0
     18314 TIP3     327      TIP3     OH2      OT      -0.834000       15.9994           0
     18315 TIP3     327      TIP3     H1       HT       0.417000       1.00800           0
     18316 TIP3     327      TIP3     H2       HT       0.417000       1.00800           0
     18317 TIP3     328      TIP3     OH2      OT      -0.834000       15.9994           0
     18318 TIP3     328      TIP3     H1       HT       0.417000       1.00800           0
     18319 TIP3     328      TIP3     H2       HT       0.417000       1.00800           0
     18320 TIP3     329      TIP3     OH2      OT      -0.834000       15.9994           0
     18321 TIP3     329      TIP3     H1       HT       0.417000       1.00800           0
     18322 TIP3     329      TIP3     H2       HT       0.417000       1.00800           0
     18323 TIP3     330      TIP3     OH2      OT      -0.834000       15.9994           0
     18324 TIP3     330      TIP3     H1       HT       0.417000       1.00800           0
     18325 TIP3     330      TIP3     H2       HT       0.417000       1.00800           0
     18326 TIP3     331      TIP3     OH2      OT      -0.834000       15.9994           0
     18327 TIP3     331      TIP3     H1       HT       0.417000       1.00800           0
     18328 TIP3     331      TIP3     H2       HT       0.417000       1.00800           0
     18329 TIP3     332      TIP3     OH2      OT      -0.834000       15.9994           0
     18330 TIP3     332      TIP3     H1       HT       0.417000       1.00800           0
     18331 TIP3     332      TIP3     H2       HT       0.417000       1.00800           0
     18332 TIP3     333      TIP3     OH2      OT      -0.834000       15.9994           0
     18333 TIP3     333      TIP3     H1       HT       0.417000       1.00800           0
     18334 TIP3     333      TIP3     H2       HT       0.417000       1.00800           0
     18335 TIP3     334      TIP3     OH2      OT      -0.834000       15.9994           0
     18336 TIP3     334      TIP3     H1       HT       0.417000       1.00800           0
     18337 TIP3     334      TIP3     H2       HT       0.417000       1.00800           0
     18338 TIP3     335      TIP3     OH2      OT      -0.834000       15.9994           0
     18339 TIP3     335      TIP3     H1       HT       0.417000       1.00800           0
     18340 TIP3     335      TIP3     H2       HT       0.417000       1.00800           0
     18341 TIP3     336      TIP3     OH2      OT      -0.834000       15.9994           0
     18342 TIP3     336      TIP3     H1       HT       0.417000       1.00800           0
     18343 TIP3     336      TIP3     H2       HT       0.417000       1.00800           0
     18344 TIP3     337      TIP3     OH2      OT      -0.834000       15.9994           0
     18345 TIP3     337      TIP3     H1       HT       0.417000       1.00800           0
     18346 TIP3     337      TIP3     H2       HT       0.417000       1.00800           0
     18347 TIP3     338      TIP3     OH2      OT      -0.834000       15.9994           0
     18348 TIP3     338      TIP3     H1       HT       0.417000       1.00800           0
     18349 TIP3     338      TIP3     H2       HT       0.417000       1.00800           0
     18350 TIP3     339      TIP3     OH2      OT      -0.834000       15.9994           0
     18351 TIP3     339      TIP3     H1       HT       0.417000       1.00800           0
     18352 TIP3     339      TIP3     H2       HT       0.417000       1.00800           0
     18353 TIP3     340      TIP3     OH2      OT      -0.834000       15.9994           0
     18354 TIP3     340      TIP3     H1       HT       0.417000       1.00800           0
     18355 TIP3     340      TIP3     H2       HT       0.417000       1.00800           0
     18356 TIP3     341      TIP3     OH2      OT      -0.834000       15.9994           0
     18357 TIP3     341      TIP3     H1       HT       0.417000       1.00800           0
     18358 TIP3     341      TIP3     H2       HT       0.417000       1.00800           0
     18359 TIP3     342      TIP3     OH2      OT      -0.834000       15.9994           0
     18360 TIP3     342      TIP3     H1       HT       0.417000       1.00800           0
     18361 TIP3     342      TIP3     H2       HT       0.417000       1.00800           0
     18362 TIP3     343      TIP3     OH2      OT      -0.834000       15.9994           0
     18363 TIP3     343      TIP3     H1       HT       0.417000       1.00800           0
     18364 TIP3     343      TIP3     H2       HT       0.417000       1.00800           0
     18365 TIP3     344      TIP3     OH2      OT      -0.834000       15.9994           0
     18366 TIP3     344      TIP3     H1       HT       0.417000       1.00800           0
     18367 TIP3     344      TIP3     H2       HT       0.417000       1.00800           0
     18368 TIP3     345      TIP3     OH2      OT      -0.834000       15.9994           0
     18369 TIP3     345      TIP3     H1       HT       0.417000       1.00800           0
     18370 TIP3     345      TIP3     H2       HT       0.417000       1.00800           0
     18371 TIP3     346      TIP3     OH2      OT      -0.834000       15.9994           0
     18372 TIP3     346      TIP3     H1       HT       0.417000       1.00800           0
     18373 TIP3     346      TIP3     H2       HT       0.417000       1.00800           0
     18374 TIP3     347      TIP3     OH2      OT      -0.834000       15.9994           0
     18375 TIP3     347      TIP3     H1       HT       0.417000       1.00800           0
     18376 TIP3     347      TIP3     H2       HT       0.417000       1.00800           0
     18377 TIP3     348      TIP3     OH2      OT      -0.834000       15.9994           0
     18378 TIP3     348      TIP3     H1       HT       0.417000       1.00800           0
     18379 TIP3     348      TIP3     H2       HT       0.417000       1.00800           0
     18380 TIP3     349      TIP3     OH2      OT      -0.834000       15.9994           0
     18381 TIP3     349      TIP3     H1       HT       0.417000       1.00800           0
     18382 TIP3     349      TIP3     H2       HT       0.417000       1.00800           0
     18383 TIP3     350      TIP3     OH2      OT      -0.834000       15.9994           0
     18384 TIP3     350      TIP3     H1       HT       0.417000       1.00800           0
     18385 TIP3     350      TIP3     H2       HT       0.417000       1.00800           0
     18386 TIP3     351      TIP3     OH2      OT      -0.834000       15.9994           0
     18387 TIP3     351      TIP3     H1       HT       0.417000       1.00800           0
     18388 TIP3     351      TIP3     H2       HT       0.417000       1.00800           0
     18389 TIP3     352      TIP3     OH2      OT      -0.834000       15.9994           0
     18390 TIP3     352      TIP3     H1       HT       0.417000       1.00800           0
     18391 TIP3     352      TIP3     H2       HT       0.417000       1.00800           0
     18392 TIP3     353      TIP3     OH2      OT      -0.834000       15.9994           0
     18393 TIP3     353      TIP3     H1       HT       0.417000       1.00800           0
     18394 TIP3     353      TIP3     H2       HT       0.417000       1.00800           0
     18395 TIP3     354      TIP3     OH2      OT      -0.834000       15.9994           0
     18396 TIP3     354      TIP3     H1       HT       0.417000       1.00800           0
     18397 TIP3     354      TIP3     H2       HT       0.417000       1.00800           0
     18398 TIP3     355      TIP3     OH2      OT      -0.834000       15.9994           0
     18399 TIP3     355      TIP3     H1       HT       0.417000       1.00800           0
     18400 TIP3     355      TIP3     H2       HT       0.417000       1.00800           0
     18401 TIP3     356      TIP3     OH2      OT      -0.834000       15.9994           0
     18402 TIP3     356      TIP3     H1       HT       0.417000       1.00800           0
     18403 TIP3     356      TIP3     H2       HT       0.417000       1.00800           0
     18404 TIP3     357      TIP3     OH2      OT      -0.834000       15.9994           0
     18405 TIP3     357      TIP3     H1       HT       0.417000       1.00800           0
     18406 TIP3     357      TIP3     H2       HT       0.417000       1.00800           0
     18407 TIP3     358      TIP3     OH2      OT      -0.834000       15.9994           0
     18408 TIP3     358      TIP3     H1       HT       0.417000       1.00800           0
     18409 TIP3     358      TIP3     H2       HT       0.417000       1.00800           0
     18410 TIP3     359      TIP3     OH2      OT      -0.834000       15.9994           0
     18411 TIP3     359      TIP3     H1       HT       0.417000       1.00800           0
     18412 TIP3     359      TIP3     H2       HT       0.417000       1.00800           0
     18413 TIP3     360      TIP3     OH2      OT      -0.834000       15.9994           0
     18414 TIP3     360      TIP3     H1       HT       0.417000       1.00800           0
     18415 TIP3     360      TIP3     H2       HT       0.417000       1.00800           0
     18416 TIP3     361      TIP3     OH2      OT      -0.834000       15.9994           0
     18417 TIP3     361      TIP3     H1       HT       0.417000       1.00800           0
     18418 TIP3     361      TIP3     H2       HT       0.417000       1.00800           0
     18419 TIP3     362      TIP3     OH2      OT      -0.834000       15.9994           0
     18420 TIP3     362      TIP3     H1       HT       0.417000       1.00800           0
     18421 TIP3     362      TIP3     H2       HT       0.417000       1.00800           0
     18422 TIP3     363      TIP3     OH2      OT      -0.834000       15.9994           0
     18423 TIP3     363      TIP3     H1       HT       0.417000       1.00800           0
     18424 TIP3     363      TIP3     H2       HT       0.417000       1.00800           0
     18425 TIP3     364      TIP3     OH2      OT      -0.834000       15.9994           0
     18426 TIP3     364      TIP3     H1       HT       0.417000       1.00800           0
     18427 TIP3     364      TIP3     H2       HT       0.417000       1.00800           0
     18428 TIP3     365      TIP3     OH2      OT      -0.834000       15.9994           0
     18429 TIP3     365      TIP3     H1       HT       0.417000       1.00800           0
     18430 TIP3     365      TIP3     H2       HT       0.417000       1.00800           0
     18431 TIP3     366      TIP3     OH2      OT      -0.834000       15.9994           0
     18432 TIP3     366      TIP3     H1       HT       0.417000       1.00800           0
     18433 TIP3     366      TIP3     H2       HT       0.417000       1.00800           0
     18434 TIP3     367      TIP3     OH2      OT      -0.834000       15.9994           0
     18435 TIP3     367      TIP3     H1       HT       0.417000       1.00800           0
     18436 TIP3     367      TIP3     H2       HT       0.417000       1.00800           0
     18437 TIP3     368      TIP3     OH2      OT      -0.834000       15.9994           0
     18438 TIP3     368      TIP3     H1       HT       0.417000       1.00800           0
     18439 TIP3     368      TIP3     H2       HT       0.417000       1.00800           0
     18440 TIP3     369      TIP3     OH2      OT      -0.834000       15.9994           0
     18441 TIP3     369      TIP3     H1       HT       0.417000       1.00800           0
     18442 TIP3     369      TIP3     H2       HT       0.417000       1.00800           0
     18443 TIP3     370      TIP3     OH2      OT      -0.834000       15.9994           0
     18444 TIP3     370      TIP3     H1       HT       0.417000       1.00800           0
     18445 TIP3     370      TIP3     H2       HT       0.417000       1.00800           0
     18446 TIP3     371      TIP3     OH2      OT      -0.834000       15.9994           0
     18447 TIP3     371      TIP3     H1       HT       0.417000       1.00800           0
     18448 TIP3     371      TIP3     H2       HT       0.417000       1.00800           0
     18449 TIP3     372      TIP3     OH2      OT      -0.834000       15.9994           0
     18450 TIP3     372      TIP3     H1       HT       0.417000       1.00800           0
     18451 TIP3     372      TIP3     H2       HT       0.417000       1.00800           0
     18452 TIP3     373      TIP3     OH2      OT      -0.834000       15.9994           0
     18453 TIP3     373      TIP3     H1       HT       0.417000       1.00800           0
     18454 TIP3     373      TIP3     H2       HT       0.417000       1.00800           0
     18455 TIP3     374      TIP3     OH2      OT      -0.834000       15.9994           0
     18456 TIP3     374      TIP3     H1       HT       0.417000       1.00800           0
     18457 TIP3     374      TIP3     H2       HT       0.417000       1.00800           0
     18458 TIP3     375      TIP3     OH2      OT      -0.834000       15.9994           0
     18459 TIP3     375      TIP3     H1       HT       0.417000       1.00800           0
     18460 TIP3     375      TIP3     H2       HT       0.417000       1.00800           0
     18461 TIP3     376      TIP3     OH2      OT      -0.834000       15.9994           0
     18462 TIP3     376      TIP3     H1       HT       0.417000       1.00800           0
     18463 TIP3     376      TIP3     H2       HT       0.417000       1.00800           0
     18464 TIP3     377      TIP3     OH2      OT      -0.834000       15.9994           0
     18465 TIP3     377      TIP3     H1       HT       0.417000       1.00800           0
     18466 TIP3     377      TIP3     H2       HT       0.417000       1.00800           0
     18467 TIP3     378      TIP3     OH2      OT      -0.834000       15.9994           0
     18468 TIP3     378      TIP3     H1       HT       0.417000       1.00800           0
     18469 TIP3     378      TIP3     H2       HT       0.417000       1.00800           0
     18470 TIP3     379      TIP3     OH2      OT      -0.834000       15.9994           0
     18471 TIP3     379      TIP3     H1       HT       0.417000       1.00800           0
     18472 TIP3     379      TIP3     H2       HT       0.417000       1.00800           0
     18473 TIP3     380      TIP3     OH2      OT      -0.834000       15.9994           0
     18474 TIP3     380      TIP3     H1       HT       0.417000       1.00800           0
     18475 TIP3     380      TIP3     H2       HT       0.417000       1.00800           0
     18476 TIP3     381      TIP3     OH2      OT      -0.834000       15.9994           0
     18477 TIP3     381      TIP3     H1       HT       0.417000       1.00800           0
     18478 TIP3     381      TIP3     H2       HT       0.417000       1.00800           0
     18479 TIP3     382      TIP3     OH2      OT      -0.834000       15.9994           0
     18480 TIP3     382      TIP3     H1       HT       0.417000       1.00800           0
     18481 TIP3     382      TIP3     H2       HT       0.417000       1.00800           0
     18482 TIP3     383      TIP3     OH2      OT      -0.834000       15.9994           0
     18483 TIP3     383      TIP3     H1       HT       0.417000       1.00800           0
     18484 TIP3     383      TIP3     H2       HT       0.417000       1.00800           0
     18485 TIP3     384      TIP3     OH2      OT      -0.834000       15.9994           0
     18486 TIP3     384      TIP3     H1       HT       0.417000       1.00800           0
     18487 TIP3     384      TIP3     H2       HT       0.417000       1.00800           0
     18488 TIP3     385      TIP3     OH2      OT      -0.834000       15.9994           0
     18489 TIP3     385      TIP3     H1       HT       0.417000       1.00800           0
     18490 TIP3     385      TIP3     H2       HT       0.417000       1.00800           0
     18491 TIP3     386      TIP3     OH2      OT      -0.834000       15.9994           0
     18492 TIP3     386      TIP3     H1       HT       0.417000       1.00800           0
     18493 TIP3     386      TIP3     H2       HT       0.417000       1.00800           0
     18494 TIP3     387      TIP3     OH2      OT      -0.834000       15.9994           0
     18495 TIP3     387      TIP3     H1       HT       0.417000       1.00800           0
     18496 TIP3     387      TIP3     H2       HT       0.417000       1.00800           0
     18497 TIP3     388      TIP3     OH2      OT      -0.834000       15.9994           0
     18498 TIP3     388      TIP3     H1       HT       0.417000       1.00800           0
     18499 TIP3     388      TIP3     H2       HT       0.417000       1.00800           0
     18500 TIP3     389      TIP3     OH2      OT      -0.834000       15.9994           0
     18501 TIP3     389      TIP3     H1       HT       0.417000       1.00800           0
     18502 TIP3     389      TIP3     H2       HT       0.417000       1.00800           0
     18503 TIP3     390      TIP3     OH2      OT      -0.834000       15.9994           0
     18504 TIP3     390      TIP3     H1       HT       0.417000       1.00800           0
     18505 TIP3     390      TIP3     H2       HT       0.417000       1.00800           0
     18506 TIP3     391      TIP3     OH2      OT      -0.834000       15.9994           0
     18507 TIP3     391      TIP3     H1       HT       0.417000       1.00800           0
     18508 TIP3     391      TIP3     H2       HT       0.417000       1.00800           0
     18509 TIP3     392      TIP3     OH2      OT      -0.834000       15.9994           0
     18510 TIP3     392      TIP3     H1       HT       0.417000       1.00800           0
     18511 TIP3     392      TIP3     H2       HT       0.417000       1.00800           0
     18512 TIP3     393      TIP3     OH2      OT      -0.834000       15.9994           0
     18513 TIP3     393      TIP3     H1       HT       0.417000       1.00800           0
     18514 TIP3     393      TIP3     H2       HT       0.417000       1.00800           0
     18515 TIP3     394      TIP3     OH2      OT      -0.834000       15.9994           0
     18516 TIP3     394      TIP3     H1       HT       0.417000       1.00800           0
     18517 TIP3     394      TIP3     H2       HT       0.417000       1.00800           0
     18518 TIP3     395      TIP3     OH2      OT      -0.834000       15.9994           0
     18519 TIP3     395      TIP3     H1       HT       0.417000       1.00800           0
     18520 TIP3     395      TIP3     H2       HT       0.417000       1.00800           0
     18521 TIP3     396      TIP3     OH2      OT      -0.834000       15.9994           0
     18522 TIP3     396      TIP3     H1       HT       0.417000       1.00800           0
     18523 TIP3     396      TIP3     H2       HT       0.417000       1.00800           0
     18524 TIP3     397      TIP3     OH2      OT      -0.834000       15.9994           0
     18525 TIP3     397      TIP3     H1       HT       0.417000       1.00800           0
     18526 TIP3     397      TIP3     H2       HT       0.417000       1.00800           0
     18527 TIP3     398      TIP3     OH2      OT      -0.834000       15.9994           0
     18528 TIP3     398      TIP3     H1       HT       0.417000       1.00800           0
     18529 TIP3     398      TIP3     H2       HT       0.417000       1.00800           0
     18530 TIP3     399      TIP3     OH2      OT      -0.834000       15.9994           0
     18531 TIP3     399      TIP3     H1       HT       0.417000       1.00800           0
     18532 TIP3     399      TIP3     H2       HT       0.417000       1.00800           0
     18533 TIP3     400      TIP3     OH2      OT      -0.834000       15.9994           0
     18534 TIP3     400      TIP3     H1       HT       0.417000       1.00800           0
     18535 TIP3     400      TIP3     H2       HT       0.417000       1.00800           0
     18536 TIP3     401      TIP3     OH2      OT      -0.834000       15.9994           0
     18537 TIP3     401      TIP3     H1       HT       0.417000       1.00800           0
     18538 TIP3     401      TIP3     H2       HT       0.417000       1.00800           0
     18539 TIP3     402      TIP3     OH2      OT      -0.834000       15.9994           0
     18540 TIP3     402      TIP3     H1       HT       0.417000       1.00800           0
     18541 TIP3     402      TIP3     H2       HT       0.417000       1.00800           0
     18542 TIP3     403      TIP3     OH2      OT      -0.834000       15.9994           0
     18543 TIP3     403      TIP3     H1       HT       0.417000       1.00800           0
     18544 TIP3     403      TIP3     H2       HT       0.417000       1.00800           0
     18545 TIP3     404      TIP3     OH2      OT      -0.834000       15.9994           0
     18546 TIP3     404      TIP3     H1       HT       0.417000       1.00800           0
     18547 TIP3     404      TIP3     H2       HT       0.417000       1.00800           0
     18548 TIP3     405      TIP3     OH2      OT      -0.834000       15.9994           0
     18549 TIP3     405      TIP3     H1       HT       0.417000       1.00800           0
     18550 TIP3     405      TIP3     H2       HT       0.417000       1.00800           0
     18551 TIP3     406      TIP3     OH2      OT      -0.834000       15.9994           0
     18552 TIP3     406      TIP3     H1       HT       0.417000       1.00800           0
     18553 TIP3     406      TIP3     H2       HT       0.417000       1.00800           0
     18554 TIP3     407      TIP3     OH2      OT      -0.834000       15.9994           0
     18555 TIP3     407      TIP3     H1       HT       0.417000       1.00800           0
     18556 TIP3     407      TIP3     H2       HT       0.417000       1.00800           0
     18557 TIP3     408      TIP3     OH2      OT      -0.834000       15.9994           0
     18558 TIP3     408      TIP3     H1       HT       0.417000       1.00800           0
     18559 TIP3     408      TIP3     H2       HT       0.417000       1.00800           0
     18560 TIP3     409      TIP3     OH2      OT      -0.834000       15.9994           0
     18561 TIP3     409      TIP3     H1       HT       0.417000       1.00800           0
     18562 TIP3     409      TIP3     H2       HT       0.417000       1.00800           0
     18563 TIP3     410      TIP3     OH2      OT      -0.834000       15.9994           0
     18564 TIP3     410      TIP3     H1       HT       0.417000       1.00800           0
     18565 TIP3     410      TIP3     H2       HT       0.417000       1.00800           0
     18566 TIP3     411      TIP3     OH2      OT      -0.834000       15.9994           0
     18567 TIP3     411      TIP3     H1       HT       0.417000       1.00800           0
     18568 TIP3     411      TIP3     H2       HT       0.417000       1.00800           0
     18569 TIP3     412      TIP3     OH2      OT      -0.834000       15.9994           0
     18570 TIP3     412      TIP3     H1       HT       0.417000       1.00800           0
     18571 TIP3     412      TIP3     H2       HT       0.417000       1.00800           0
     18572 TIP3     413      TIP3     OH2      OT      -0.834000       15.9994           0
     18573 TIP3     413      TIP3     H1       HT       0.417000       1.00800           0
     18574 TIP3     413      TIP3     H2       HT       0.417000       1.00800           0
     18575 TIP3     414      TIP3     OH2      OT      -0.834000       15.9994           0
     18576 TIP3     414      TIP3     H1       HT       0.417000       1.00800           0
     18577 TIP3     414      TIP3     H2       HT       0.417000       1.00800           0
     18578 TIP3     415      TIP3     OH2      OT      -0.834000       15.9994           0
     18579 TIP3     415      TIP3     H1       HT       0.417000       1.00800           0
     18580 TIP3     415      TIP3     H2       HT       0.417000       1.00800           0
     18581 TIP3     416      TIP3     OH2      OT      -0.834000       15.9994           0
     18582 TIP3     416      TIP3     H1       HT       0.417000       1.00800           0
     18583 TIP3     416      TIP3     H2       HT       0.417000       1.00800           0
     18584 TIP3     417      TIP3     OH2      OT      -0.834000       15.9994           0
     18585 TIP3     417      TIP3     H1       HT       0.417000       1.00800           0
     18586 TIP3     417      TIP3     H2       HT       0.417000       1.00800           0
     18587 TIP3     418      TIP3     OH2      OT      -0.834000       15.9994           0
     18588 TIP3     418      TIP3     H1       HT       0.417000       1.00800           0
     18589 TIP3     418      TIP3     H2       HT       0.417000       1.00800           0
     18590 TIP3     419      TIP3     OH2      OT      -0.834000       15.9994           0
     18591 TIP3     419      TIP3     H1       HT       0.417000       1.00800           0
     18592 TIP3     419      TIP3     H2       HT       0.417000       1.00800           0
     18593 TIP3     420      TIP3     OH2      OT      -0.834000       15.9994           0
     18594 TIP3     420      TIP3     H1       HT       0.417000       1.00800           0
     18595 TIP3     420      TIP3     H2       HT       0.417000       1.00800           0
     18596 TIP3     421      TIP3     OH2      OT      -0.834000       15.9994           0
     18597 TIP3     421      TIP3     H1       HT       0.417000       1.00800           0
     18598 TIP3     421      TIP3     H2       HT       0.417000       1.00800           0
     18599 TIP3     422      TIP3     OH2      OT      -0.834000       15.9994           0
     18600 TIP3     422      TIP3     H1       HT       0.417000       1.00800           0
     18601 TIP3     422      TIP3     H2       HT       0.417000       1.00800           0
     18602 TIP3     423      TIP3     OH2      OT      -0.834000       15.9994           0
     18603 TIP3     423      TIP3     H1       HT       0.417000       1.00800           0
     18604 TIP3     423      TIP3     H2       HT       0.417000       1.00800           0
     18605 TIP3     424      TIP3     OH2      OT      -0.834000       15.9994           0
     18606 TIP3     424      TIP3     H1       HT       0.417000       1.00800           0
     18607 TIP3     424      TIP3     H2       HT       0.417000       1.00800           0
     18608 TIP3     425      TIP3     OH2      OT      -0.834000       15.9994           0
     18609 TIP3     425      TIP3     H1       HT       0.417000       1.00800           0
     18610 TIP3     425      TIP3     H2       HT       0.417000       1.00800           0
     18611 TIP3     426      TIP3     OH2      OT      -0.834000       15.9994           0
     18612 TIP3     426      TIP3     H1       HT       0.417000       1.00800           0
     18613 TIP3     426      TIP3     H2       HT       0.417000       1.00800           0
     18614 TIP3     427      TIP3     OH2      OT      -0.834000       15.9994           0
     18615 TIP3     427      TIP3     H1       HT       0.417000       1.00800           0
     18616 TIP3     427      TIP3     H2       HT       0.417000       1.00800           0
     18617 TIP3     428      TIP3     OH2      OT      -0.834000       15.9994           0
     18618 TIP3     428      TIP3     H1       HT       0.417000       1.00800           0
     18619 TIP3     428      TIP3     H2       HT       0.417000       1.00800           0
     18620 TIP3     429      TIP3     OH2      OT      -0.834000       15.9994           0
     18621 TIP3     429      TIP3     H1       HT       0.417000       1.00800           0
     18622 TIP3     429      TIP3     H2       HT       0.417000       1.00800           0
     18623 TIP3     430      TIP3     OH2      OT      -0.834000       15.9994           0
     18624 TIP3     430      TIP3     H1       HT       0.417000       1.00800           0
     18625 TIP3     430      TIP3     H2       HT       0.417000       1.00800           0
     18626 TIP3     431      TIP3     OH2      OT      -0.834000       15.9994           0
     18627 TIP3     431      TIP3     H1       HT       0.417000       1.00800           0
     18628 TIP3     431      TIP3     H2       HT       0.417000       1.00800           0
     18629 TIP3     432      TIP3     OH2      OT      -0.834000       15.9994           0
     18630 TIP3     432      TIP3     H1       HT       0.417000       1.00800           0
     18631 TIP3     432      TIP3     H2       HT       0.417000       1.00800           0
     18632 TIP3     433      TIP3     OH2      OT      -0.834000       15.9994           0
     18633 TIP3     433      TIP3     H1       HT       0.417000       1.00800           0
     18634 TIP3     433      TIP3     H2       HT       0.417000       1.00800           0
     18635 TIP3     434      TIP3     OH2      OT      -0.834000       15.9994           0
     18636 TIP3     434      TIP3     H1       HT       0.417000       1.00800           0
     18637 TIP3     434      TIP3     H2       HT       0.417000       1.00800           0
     18638 TIP3     435      TIP3     OH2      OT      -0.834000       15.9994           0
     18639 TIP3     435      TIP3     H1       HT       0.417000       1.00800           0
     18640 TIP3     435      TIP3     H2       HT       0.417000       1.00800           0
     18641 TIP3     436      TIP3     OH2      OT      -0.834000       15.9994           0
     18642 TIP3     436      TIP3     H1       HT       0.417000       1.00800           0
     18643 TIP3     436      TIP3     H2       HT       0.417000       1.00800           0
     18644 TIP3     437      TIP3     OH2      OT      -0.834000       15.9994           0
     18645 TIP3     437      TIP3     H1       HT       0.417000       1.00800           0
     18646 TIP3     437      TIP3     H2       HT       0.417000       1.00800           0
     18647 TIP3     438      TIP3     OH2      OT      -0.834000       15.9994           0
     18648 TIP3     438      TIP3     H1       HT       0.417000       1.00800           0
     18649 TIP3     438      TIP3     H2       HT       0.417000       1.00800           0
     18650 TIP3     439      TIP3     OH2      OT      -0.834000       15.9994           0
     18651 TIP3     439      TIP3     H1       HT       0.417000       1.00800           0
     18652 TIP3     439      TIP3     H2       HT       0.417000       1.00800           0
     18653 TIP3     440      TIP3     OH2      OT      -0.834000       15.9994           0
     18654 TIP3     440      TIP3     H1       HT       0.417000       1.00800           0
     18655 TIP3     440      TIP3     H2       HT       0.417000       1.00800           0
     18656 TIP3     441      TIP3     OH2      OT      -0.834000       15.9994           0
     18657 TIP3     441      TIP3     H1       HT       0.417000       1.00800           0
     18658 TIP3     441      TIP3     H2       HT       0.417000       1.00800           0
     18659 TIP3     442      TIP3     OH2      OT      -0.834000       15.9994           0
     18660 TIP3     442      TIP3     H1       HT       0.417000       1.00800           0
     18661 TIP3     442      TIP3     H2       HT       0.417000       1.00800           0
     18662 TIP3     443      TIP3     OH2      OT      -0.834000       15.9994           0
     18663 TIP3     443      TIP3     H1       HT       0.417000       1.00800           0
     18664 TIP3     443      TIP3     H2       HT       0.417000       1.00800           0
     18665 TIP3     444      TIP3     OH2      OT      -0.834000       15.9994           0
     18666 TIP3     444      TIP3     H1       HT       0.417000       1.00800           0
     18667 TIP3     444      TIP3     H2       HT       0.417000       1.00800           0
     18668 TIP3     445      TIP3     OH2      OT      -0.834000       15.9994           0
     18669 TIP3     445      TIP3     H1       HT       0.417000       1.00800           0
     18670 TIP3     445      TIP3     H2       HT       0.417000       1.00800           0
     18671 TIP3     446      TIP3     OH2      OT      -0.834000       15.9994           0
     18672 TIP3     446      TIP3     H1       HT       0.417000       1.00800           0
     18673 TIP3     446      TIP3     H2       HT       0.417000       1.00800           0
     18674 TIP3     447      TIP3     OH2      OT      -0.834000       15.9994           0
     18675 TIP3     447      TIP3     H1       HT       0.417000       1.00800           0
     18676 TIP3     447      TIP3     H2       HT       0.417000       1.00800           0
     18677 TIP3     448      TIP3     OH2      OT      -0.834000       15.9994           0
     18678 TIP3     448      TIP3     H1       HT       0.417000       1.00800           0
     18679 TIP3     448      TIP3     H2       HT       0.417000       1.00800           0
     18680 TIP3     449      TIP3     OH2      OT      -0.834000       15.9994           0
     18681 TIP3     449      TIP3     H1       HT       0.417000       1.00800           0
     18682 TIP3     449      TIP3     H2       HT       0.417000       1.00800           0
     18683 TIP3     450      TIP3     OH2      OT      -0.834000       15.9994           0
     18684 TIP3     450      TIP3     H1       HT       0.417000       1.00800           0
     18685 TIP3     450      TIP3     H2       HT       0.417000       1.00800           0
     18686 TIP3     451      TIP3     OH2      OT      -0.834000       15.9994           0
     18687 TIP3     451      TIP3     H1       HT       0.417000       1.00800           0
     18688 TIP3     451      TIP3     H2       HT       0.417000       1.00800           0
     18689 TIP3     452      TIP3     OH2      OT      -0.834000       15.9994           0
     18690 TIP3     452      TIP3     H1       HT       0.417000       1.00800           0
     18691 TIP3     452      TIP3     H2       HT       0.417000       1.00800           0
     18692 TIP3     453      TIP3     OH2      OT      -0.834000       15.9994           0
     18693 TIP3     453      TIP3     H1       HT       0.417000       1.00800           0
     18694 TIP3     453      TIP3     H2       HT       0.417000       1.00800           0
     18695 TIP3     454      TIP3     OH2      OT      -0.834000       15.9994           0
     18696 TIP3     454      TIP3     H1       HT       0.417000       1.00800           0
     18697 TIP3     454      TIP3     H2       HT       0.417000       1.00800           0
     18698 TIP3     455      TIP3     OH2      OT      -0.834000       15.9994           0
     18699 TIP3     455      TIP3     H1       HT       0.417000       1.00800           0
     18700 TIP3     455      TIP3     H2       HT       0.417000       1.00800           0
     18701 TIP3     456      TIP3     OH2      OT      -0.834000       15.9994           0
     18702 TIP3     456      TIP3     H1       HT       0.417000       1.00800           0
     18703 TIP3     456      TIP3     H2       HT       0.417000       1.00800           0
     18704 TIP3     457      TIP3     OH2      OT      -0.834000       15.9994           0
     18705 TIP3     457      TIP3     H1       HT       0.417000       1.00800           0
     18706 TIP3     457      TIP3     H2       HT       0.417000       1.00800           0
     18707 TIP3     458      TIP3     OH2      OT      -0.834000       15.9994           0
     18708 TIP3     458      TIP3     H1       HT       0.417000       1.00800           0
     18709 TIP3     458      TIP3     H2       HT       0.417000       1.00800           0
     18710 TIP3     459      TIP3     OH2      OT      -0.834000       15.9994           0
     18711 TIP3     459      TIP3     H1       HT       0.417000       1.00800           0
     18712 TIP3     459      TIP3     H2       HT       0.417000       1.00800           0
     18713 TIP3     460      TIP3     OH2      OT      -0.834000       15.9994           0
     18714 TIP3     460      TIP3     H1       HT       0.417000       1.00800           0
     18715 TIP3     460      TIP3     H2       HT       0.417000       1.00800           0
     18716 TIP3     461      TIP3     OH2      OT      -0.834000       15.9994           0
     18717 TIP3     461      TIP3     H1       HT       0.417000       1.00800           0
     18718 TIP3     461      TIP3     H2       HT       0.417000       1.00800           0
     18719 TIP3     462      TIP3     OH2      OT      -0.834000       15.9994           0
     18720 TIP3     462      TIP3     H1       HT       0.417000       1.00800           0
     18721 TIP3     462      TIP3     H2       HT       0.417000       1.00800           0
     18722 TIP3     463      TIP3     OH2      OT      -0.834000       15.9994           0
     18723 TIP3     463      TIP3     H1       HT       0.417000       1.00800           0
     18724 TIP3     463      TIP3     H2       HT       0.417000       1.00800           0
     18725 TIP3     464      TIP3     OH2      OT      -0.834000       15.9994           0
     18726 TIP3     464      TIP3     H1       HT       0.417000       1.00800           0
     18727 TIP3     464      TIP3     H2       HT       0.417000       1.00800           0
     18728 TIP3     465      TIP3     OH2      OT      -0.834000       15.9994           0
     18729 TIP3     465      TIP3     H1       HT       0.417000       1.00800           0
     18730 TIP3     465      TIP3     H2       HT       0.417000       1.00800           0
     18731 TIP3     466      TIP3     OH2      OT      -0.834000       15.9994           0
     18732 TIP3     466      TIP3     H1       HT       0.417000       1.00800           0
     18733 TIP3     466      TIP3     H2       HT       0.417000       1.00800           0
     18734 TIP3     467      TIP3     OH2      OT      -0.834000       15.9994           0
     18735 TIP3     467      TIP3     H1       HT       0.417000       1.00800           0
     18736 TIP3     467      TIP3     H2       HT       0.417000       1.00800           0
     18737 TIP3     468      TIP3     OH2      OT      -0.834000       15.9994           0
     18738 TIP3     468      TIP3     H1       HT       0.417000       1.00800           0
     18739 TIP3     468      TIP3     H2       HT       0.417000       1.00800           0
     18740 TIP3     469      TIP3     OH2      OT      -0.834000       15.9994           0
     18741 TIP3     469      TIP3     H1       HT       0.417000       1.00800           0
     18742 TIP3     469      TIP3     H2       HT       0.417000       1.00800           0
     18743 TIP3     470      TIP3     OH2      OT      -0.834000       15.9994           0
     18744 TIP3     470      TIP3     H1       HT       0.417000       1.00800           0
     18745 TIP3     470      TIP3     H2       HT       0.417000       1.00800           0
     18746 TIP3     471      TIP3     OH2      OT      -0.834000       15.9994           0
     18747 TIP3     471      TIP3     H1       HT       0.417000       1.00800           0
     18748 TIP3     471      TIP3     H2       HT       0.417000       1.00800           0
     18749 TIP3     472      TIP3     OH2      OT      -0.834000       15.9994           0
     18750 TIP3     472      TIP3     H1       HT       0.417000       1.00800           0
     18751 TIP3     472      TIP3     H2       HT       0.417000       1.00800           0
     18752 TIP3     473      TIP3     OH2      OT      -0.834000       15.9994           0
     18753 TIP3     473      TIP3     H1       HT       0.417000       1.00800           0
     18754 TIP3     473      TIP3     H2       HT       0.417000       1.00800           0
     18755 TIP3     474      TIP3     OH2      OT      -0.834000       15.9994           0
     18756 TIP3     474      TIP3     H1       HT       0.417000       1.00800           0
     18757 TIP3     474      TIP3     H2       HT       0.417000       1.00800           0
     18758 TIP3     475      TIP3     OH2      OT      -0.834000       15.9994           0
     18759 TIP3     475      TIP3     H1       HT       0.417000       1.00800           0
     18760 TIP3     475      TIP3     H2       HT       0.417000       1.00800           0
     18761 TIP3     476      TIP3     OH2      OT      -0.834000       15.9994           0
     18762 TIP3     476      TIP3     H1       HT       0.417000       1.00800           0
     18763 TIP3     476      TIP3     H2       HT       0.417000       1.00800           0
     18764 TIP3     477      TIP3     OH2      OT      -0.834000       15.9994           0
     18765 TIP3     477      TIP3     H1       HT       0.417000       1.00800           0
     18766 TIP3     477      TIP3     H2       HT       0.417000       1.00800           0
     18767 TIP3     478      TIP3     OH2      OT      -0.834000       15.9994           0
     18768 TIP3     478      TIP3     H1       HT       0.417000       1.00800           0
     18769 TIP3     478      TIP3     H2       HT       0.417000       1.00800           0
     18770 TIP3     479      TIP3     OH2      OT      -0.834000       15.9994           0
     18771 TIP3     479      TIP3     H1       HT       0.417000       1.00800           0
     18772 TIP3     479      TIP3     H2       HT       0.417000       1.00800           0
     18773 TIP3     480      TIP3     OH2      OT      -0.834000       15.9994           0
     18774 TIP3     480      TIP3     H1       HT       0.417000       1.00800           0
     18775 TIP3     480      TIP3     H2       HT       0.417000       1.00800           0
     18776 TIP3     481      TIP3     OH2      OT      -0.834000       15.9994           0
     18777 TIP3     481      TIP3     H1       HT       0.417000       1.00800           0
     18778 TIP3     481      TIP3     H2       HT       0.417000       1.00800           0
     18779 TIP3     482      TIP3     OH2      OT      -0.834000       15.9994           0
     18780 TIP3     482      TIP3     H1       HT       0.417000       1.00800           0
     18781 TIP3     482      TIP3     H2       HT       0.417000       1.00800           0
     18782 TIP3     483      TIP3     OH2      OT      -0.834000       15.9994           0
     18783 TIP3     483      TIP3     H1       HT       0.417000       1.00800           0
     18784 TIP3     483      TIP3     H2       HT       0.417000       1.00800           0
     18785 TIP3     484      TIP3     OH2      OT      -0.834000       15.9994           0
     18786 TIP3     484      TIP3     H1       HT       0.417000       1.00800           0
     18787 TIP3     484      TIP3     H2       HT       0.417000       1.00800           0
     18788 TIP3     485      TIP3     OH2      OT      -0.834000       15.9994           0
     18789 TIP3     485      TIP3     H1       HT       0.417000       1.00800           0
     18790 TIP3     485      TIP3     H2       HT       0.417000       1.00800           0
     18791 TIP3     486      TIP3     OH2      OT      -0.834000       15.9994           0
     18792 TIP3     486      TIP3     H1       HT       0.417000       1.00800           0
     18793 TIP3     486      TIP3     H2       HT       0.417000       1.00800           0
     18794 TIP3     487      TIP3     OH2      OT      -0.834000       15.9994           0
     18795 TIP3     487      TIP3     H1       HT       0.417000       1.00800           0
     18796 TIP3     487      TIP3     H2       HT       0.417000       1.00800           0
     18797 TIP3     488      TIP3     OH2      OT      -0.834000       15.9994           0
     18798 TIP3     488      TIP3     H1       HT       0.417000       1.00800           0
     18799 TIP3     488      TIP3     H2       HT       0.417000       1.00800           0
     18800 TIP3     489      TIP3     OH2      OT      -0.834000       15.9994           0
     18801 TIP3     489      TIP3     H1       HT       0.417000       1.00800           0
     18802 TIP3     489      TIP3     H2       HT       0.417000       1.00800           0
     18803 TIP3     490      TIP3     OH2      OT      -0.834000       15.9994           0
     18804 TIP3     490      TIP3     H1       HT       0.417000       1.00800           0
     18805 TIP3     490      TIP3     H2       HT       0.417000       1.00800           0
     18806 TIP3     491      TIP3     OH2      OT      -0.834000       15.9994           0
     18807 TIP3     491      TIP3     H1       HT       0.417000       1.00800           0
     18808 TIP3     491      TIP3     H2       HT       0.417000       1.00800           0
     18809 TIP3     492      TIP3     OH2      OT      -0.834000       15.9994           0
     18810 TIP3     492      TIP3     H1       HT       0.417000       1.00800           0
     18811 TIP3     492      TIP3     H2       HT       0.417000       1.00800           0
     18812 TIP3     493      TIP3     OH2      OT      -0.834000       15.9994           0
     18813 TIP3     493      TIP3     H1       HT       0.417000       1.00800           0
     18814 TIP3     493      TIP3     H2       HT       0.417000       1.00800           0
     18815 TIP3     494      TIP3     OH2      OT      -0.834000       15.9994           0
     18816 TIP3     494      TIP3     H1       HT       0.417000       1.00800           0
     18817 TIP3     494      TIP3     H2       HT       0.417000       1.00800           0
     18818 TIP3     495      TIP3     OH2      OT      -0.834000       15.9994           0
     18819 TIP3     495      TIP3     H1       HT       0.417000       1.00800           0
     18820 TIP3     495      TIP3     H2       HT       0.417000       1.00800           0
     18821 TIP3     496      TIP3     OH2      OT      -0.834000       15.9994           0
     18822 TIP3     496      TIP3     H1       HT       0.417000       1.00800           0
     18823 TIP3     496      TIP3     H2       HT       0.417000       1.00800           0
     18824 TIP3     497      TIP3     OH2      OT      -0.834000       15.9994           0
     18825 TIP3     497      TIP3     H1       HT       0.417000       1.00800           0
     18826 TIP3     497      TIP3     H2       HT       0.417000       1.00800           0
     18827 TIP3     498      TIP3     OH2      OT      -0.834000       15.9994           0
     18828 TIP3     498      TIP3     H1       HT       0.417000       1.00800           0
     18829 TIP3     498      TIP3     H2       HT       0.417000       1.00800           0
     18830 TIP3     499      TIP3     OH2      OT      -0.834000       15.9994           0
     18831 TIP3     499      TIP3     H1       HT       0.417000       1.00800           0
     18832 TIP3     499      TIP3     H2       HT       0.417000       1.00800           0
     18833 TIP3     500      TIP3     OH2      OT      -0.834000       15.9994           0
     18834 TIP3     500      TIP3     H1       HT       0.417000       1.00800           0
     18835 TIP3     500      TIP3     H2       HT       0.417000       1.00800           0
     18836 TIP3     501      TIP3     OH2      OT      -0.834000       15.9994           0
     18837 TIP3     501      TIP3     H1       HT       0.417000       1.00800           0
     18838 TIP3     501      TIP3     H2       HT       0.417000       1.00800           0
     18839 TIP3     502      TIP3     OH2      OT      -0.834000       15.9994           0
     18840 TIP3     502      TIP3     H1       HT       0.417000       1.00800           0
     18841 TIP3     502      TIP3     H2       HT       0.417000       1.00800           0
     18842 TIP3     503      TIP3     OH2      OT      -0.834000       15.9994           0
     18843 TIP3     503      TIP3     H1       HT       0.417000       1.00800           0
     18844 TIP3     503      TIP3     H2       HT       0.417000       1.00800           0
     18845 TIP3     504      TIP3     OH2      OT      -0.834000       15.9994           0
     18846 TIP3     504      TIP3     H1       HT       0.417000       1.00800           0
     18847 TIP3     504      TIP3     H2       HT       0.417000       1.00800           0
     18848 TIP3     505      TIP3     OH2      OT      -0.834000       15.9994           0
     18849 TIP3     505      TIP3     H1       HT       0.417000       1.00800           0
     18850 TIP3     505      TIP3     H2       HT       0.417000       1.00800           0
     18851 TIP3     506      TIP3     OH2      OT      -0.834000       15.9994           0
     18852 TIP3     506      TIP3     H1       HT       0.417000       1.00800           0
     18853 TIP3     506      TIP3     H2       HT       0.417000       1.00800           0
     18854 TIP3     507      TIP3     OH2      OT      -0.834000       15.9994           0
     18855 TIP3     507      TIP3     H1       HT       0.417000       1.00800           0
     18856 TIP3     507      TIP3     H2       HT       0.417000       1.00800           0
     18857 TIP3     508      TIP3     OH2      OT      -0.834000       15.9994           0
     18858 TIP3     508      TIP3     H1       HT       0.417000       1.00800           0
     18859 TIP3     508      TIP3     H2       HT       0.417000       1.00800           0
     18860 TIP3     509      TIP3     OH2      OT      -0.834000       15.9994           0
     18861 TIP3     509      TIP3     H1       HT       0.417000       1.00800           0
     18862 TIP3     509      TIP3     H2       HT       0.417000       1.00800           0
     18863 TIP3     510      TIP3     OH2      OT      -0.834000       15.9994           0
     18864 TIP3     510      TIP3     H1       HT       0.417000       1.00800           0
     18865 TIP3     510      TIP3     H2       HT       0.417000       1.00800           0
     18866 TIP3     511      TIP3     OH2      OT      -0.834000       15.9994           0
     18867 TIP3     511      TIP3     H1       HT       0.417000       1.00800           0
     18868 TIP3     511      TIP3     H2       HT       0.417000       1.00800           0
     18869 TIP3     512      TIP3     OH2      OT      -0.834000       15.9994           0
     18870 TIP3     512      TIP3     H1       HT       0.417000       1.00800           0
     18871 TIP3     512      TIP3     H2       HT       0.417000       1.00800           0
     18872 TIP3     513      TIP3     OH2      OT      -0.834000       15.9994           0
     18873 TIP3     513      TIP3     H1       HT       0.417000       1.00800           0
     18874 TIP3     513      TIP3     H2       HT       0.417000       1.00800           0
     18875 TIP3     514      TIP3     OH2      OT      -0.834000       15.9994           0
     18876 TIP3     514      TIP3     H1       HT       0.417000       1.00800           0
     18877 TIP3     514      TIP3     H2       HT       0.417000       1.00800           0
     18878 TIP3     515      TIP3     OH2      OT      -0.834000       15.9994           0
     18879 TIP3     515      TIP3     H1       HT       0.417000       1.00800           0
     18880 TIP3     515      TIP3     H2       HT       0.417000       1.00800           0
     18881 TIP3     516      TIP3     OH2      OT      -0.834000       15.9994           0
     18882 TIP3     516      TIP3     H1       HT       0.417000       1.00800           0
     18883 TIP3     516      TIP3     H2       HT       0.417000       1.00800           0
     18884 TIP3     517      TIP3     OH2      OT      -0.834000       15.9994           0
     18885 TIP3     517      TIP3     H1       HT       0.417000       1.00800           0
     18886 TIP3     517      TIP3     H2       HT       0.417000       1.00800           0
     18887 TIP3     518      TIP3     OH2      OT      -0.834000       15.9994           0
     18888 TIP3     518      TIP3     H1       HT       0.417000       1.00800           0
     18889 TIP3     518      TIP3     H2       HT       0.417000       1.00800           0
     18890 TIP3     519      TIP3     OH2      OT      -0.834000       15.9994           0
     18891 TIP3     519      TIP3     H1       HT       0.417000       1.00800           0
     18892 TIP3     519      TIP3     H2       HT       0.417000       1.00800           0
     18893 TIP3     520      TIP3     OH2      OT      -0.834000       15.9994           0
     18894 TIP3     520      TIP3     H1       HT       0.417000       1.00800           0
     18895 TIP3     520      TIP3     H2       HT       0.417000       1.00800           0
     18896 TIP3     521      TIP3     OH2      OT      -0.834000       15.9994           0
     18897 TIP3     521      TIP3     H1       HT       0.417000       1.00800           0
     18898 TIP3     521      TIP3     H2       HT       0.417000       1.00800           0
     18899 TIP3     522      TIP3     OH2      OT      -0.834000       15.9994           0
     18900 TIP3     522      TIP3     H1       HT       0.417000       1.00800           0
     18901 TIP3     522      TIP3     H2       HT       0.417000       1.00800           0
     18902 TIP3     523      TIP3     OH2      OT      -0.834000       15.9994           0
     18903 TIP3     523      TIP3     H1       HT       0.417000       1.00800           0
     18904 TIP3     523      TIP3     H2       HT       0.417000       1.00800           0
     18905 TIP3     524      TIP3     OH2      OT      -0.834000       15.9994           0
     18906 TIP3     524      TIP3     H1       HT       0.417000       1.00800           0
     18907 TIP3     524      TIP3     H2       HT       0.417000       1.00800           0
     18908 TIP3     525      TIP3     OH2      OT      -0.834000       15.9994           0
     18909 TIP3     525      TIP3     H1       HT       0.417000       1.00800           0
     18910 TIP3     525      TIP3     H2       HT       0.417000       1.00800           0
     18911 TIP3     526      TIP3     OH2      OT      -0.834000       15.9994           0
     18912 TIP3     526      TIP3     H1       HT       0.417000       1.00800           0
     18913 TIP3     526      TIP3     H2       HT       0.417000       1.00800           0
     18914 TIP3     527      TIP3     OH2      OT      -0.834000       15.9994           0
     18915 TIP3     527      TIP3     H1       HT       0.417000       1.00800           0
     18916 TIP3     527      TIP3     H2       HT       0.417000       1.00800           0
     18917 TIP3     528      TIP3     OH2      OT      -0.834000       15.9994           0
     18918 TIP3     528      TIP3     H1       HT       0.417000       1.00800           0
     18919 TIP3     528      TIP3     H2       HT       0.417000       1.00800           0
     18920 TIP3     529      TIP3     OH2      OT      -0.834000       15.9994           0
     18921 TIP3     529      TIP3     H1       HT       0.417000       1.00800           0
     18922 TIP3     529      TIP3     H2       HT       0.417000       1.00800           0
     18923 TIP3     530      TIP3     OH2      OT      -0.834000       15.9994           0
     18924 TIP3     530      TIP3     H1       HT       0.417000       1.00800           0
     18925 TIP3     530      TIP3     H2       HT       0.417000       1.00800           0
     18926 TIP3     531      TIP3     OH2      OT      -0.834000       15.9994           0
     18927 TIP3     531      TIP3     H1       HT       0.417000       1.00800           0
     18928 TIP3     531      TIP3     H2       HT       0.417000       1.00800           0
     18929 TIP3     532      TIP3     OH2      OT      -0.834000       15.9994           0
     18930 TIP3     532      TIP3     H1       HT       0.417000       1.00800           0
     18931 TIP3     532      TIP3     H2       HT       0.417000       1.00800           0
     18932 TIP3     533      TIP3     OH2      OT      -0.834000       15.9994           0
     18933 TIP3     533      TIP3     H1       HT       0.417000       1.00800           0
     18934 TIP3     533      TIP3     H2       HT       0.417000       1.00800           0
     18935 TIP3     534      TIP3     OH2      OT      -0.834000       15.9994           0
     18936 TIP3     534      TIP3     H1       HT       0.417000       1.00800           0
     18937 TIP3     534      TIP3     H2       HT       0.417000       1.00800           0
     18938 TIP3     535      TIP3     OH2      OT      -0.834000       15.9994           0
     18939 TIP3     535      TIP3     H1       HT       0.417000       1.00800           0
     18940 TIP3     535      TIP3     H2       HT       0.417000       1.00800           0
     18941 TIP3     536      TIP3     OH2      OT      -0.834000       15.9994           0
     18942 TIP3     536      TIP3     H1       HT       0.417000       1.00800           0
     18943 TIP3     536      TIP3     H2       HT       0.417000       1.00800           0
     18944 TIP3     537      TIP3     OH2      OT      -0.834000       15.9994           0
     18945 TIP3     537      TIP3     H1       HT       0.417000       1.00800           0
     18946 TIP3     537      TIP3     H2       HT       0.417000       1.00800           0
     18947 TIP3     538      TIP3     OH2      OT      -0.834000       15.9994           0
     18948 TIP3     538      TIP3     H1       HT       0.417000       1.00800           0
     18949 TIP3     538      TIP3     H2       HT       0.417000       1.00800           0
     18950 TIP3     539      TIP3     OH2      OT      -0.834000       15.9994           0
     18951 TIP3     539      TIP3     H1       HT       0.417000       1.00800           0
     18952 TIP3     539      TIP3     H2       HT       0.417000       1.00800           0
     18953 TIP3     540      TIP3     OH2      OT      -0.834000       15.9994           0
     18954 TIP3     540      TIP3     H1       HT       0.417000       1.00800           0
     18955 TIP3     540      TIP3     H2       HT       0.417000       1.00800           0
     18956 TIP3     541      TIP3     OH2      OT      -0.834000       15.9994           0
     18957 TIP3     541      TIP3     H1       HT       0.417000       1.00800           0
     18958 TIP3     541      TIP3     H2       HT       0.417000       1.00800           0
     18959 TIP3     542      TIP3     OH2      OT      -0.834000       15.9994           0
     18960 TIP3     542      TIP3     H1       HT       0.417000       1.00800           0
     18961 TIP3     542      TIP3     H2       HT       0.417000       1.00800           0
     18962 TIP3     543      TIP3     OH2      OT      -0.834000       15.9994           0
     18963 TIP3     543      TIP3     H1       HT       0.417000       1.00800           0
     18964 TIP3     543      TIP3     H2       HT       0.417000       1.00800           0
     18965 TIP3     544      TIP3     OH2      OT      -0.834000       15.9994           0
     18966 TIP3     544      TIP3     H1       HT       0.417000       1.00800           0
     18967 TIP3     544      TIP3     H2       HT       0.417000       1.00800           0
     18968 TIP3     545      TIP3     OH2      OT      -0.834000       15.9994           0
     18969 TIP3     545      TIP3     H1       HT       0.417000       1.00800           0
     18970 TIP3     545      TIP3     H2       HT       0.417000       1.00800           0
     18971 TIP3     546      TIP3     OH2      OT      -0.834000       15.9994           0
     18972 TIP3     546      TIP3     H1       HT       0.417000       1.00800           0
     18973 TIP3     546      TIP3     H2       HT       0.417000       1.00800           0
     18974 TIP3     547      TIP3     OH2      OT      -0.834000       15.9994           0
     18975 TIP3     547      TIP3     H1       HT       0.417000       1.00800           0
     18976 TIP3     547      TIP3     H2       HT       0.417000       1.00800           0
     18977 TIP3     548      TIP3     OH2      OT      -0.834000       15.9994           0
     18978 TIP3     548      TIP3     H1       HT       0.417000       1.00800           0
     18979 TIP3     548      TIP3     H2       HT       0.417000       1.00800           0
     18980 TIP3     549      TIP3     OH2      OT      -0.834000       15.9994           0
     18981 TIP3     549      TIP3     H1       HT       0.417000       1.00800           0
     18982 TIP3     549      TIP3     H2       HT       0.417000       1.00800           0
     18983 TIP3     550      TIP3     OH2      OT      -0.834000       15.9994           0
     18984 TIP3     550      TIP3     H1       HT       0.417000       1.00800           0
     18985 TIP3     550      TIP3     H2       HT       0.417000       1.00800           0
     18986 TIP3     551      TIP3     OH2      OT      -0.834000       15.9994           0
     18987 TIP3     551      TIP3     H1       HT       0.417000       1.00800           0
     18988 TIP3     551      TIP3     H2       HT       0.417000       1.00800           0
     18989 TIP3     552      TIP3     OH2      OT      -0.834000       15.9994           0
     18990 TIP3     552      TIP3     H1       HT       0.417000       1.00800           0
     18991 TIP3     552      TIP3     H2       HT       0.417000       1.00800           0
     18992 TIP3     553      TIP3     OH2      OT      -0.834000       15.9994           0
     18993 TIP3     553      TIP3     H1       HT       0.417000       1.00800           0
     18994 TIP3     553      TIP3     H2       HT       0.417000       1.00800           0
     18995 TIP3     554      TIP3     OH2      OT      -0.834000       15.9994           0
     18996 TIP3     554      TIP3     H1       HT       0.417000       1.00800           0
     18997 TIP3     554      TIP3     H2       HT       0.417000       1.00800           0
     18998 TIP3     555      TIP3     OH2      OT      -0.834000       15.9994           0
     18999 TIP3     555      TIP3     H1       HT       0.417000       1.00800           0
     19000 TIP3     555      TIP3     H2       HT       0.417000       1.00800           0
     19001 TIP3     556      TIP3     OH2      OT      -0.834000       15.9994           0
     19002 TIP3     556      TIP3     H1       HT       0.417000       1.00800           0
     19003 TIP3     556      TIP3     H2       HT       0.417000       1.00800           0
     19004 TIP3     557      TIP3     OH2      OT      -0.834000       15.9994           0
     19005 TIP3     557      TIP3     H1       HT       0.417000       1.00800           0
     19006 TIP3     557      TIP3     H2       HT       0.417000       1.00800           0
     19007 TIP3     558      TIP3     OH2      OT      -0.834000       15.9994           0
     19008 TIP3     558      TIP3     H1       HT       0.417000       1.00800           0
     19009 TIP3     558      TIP3     H2       HT       0.417000       1.00800           0
     19010 TIP3     559      TIP3     OH2      OT      -0.834000       15.9994           0
     19011 TIP3     559      TIP3     H1       HT       0.417000       1.00800           0
     19012 TIP3     559      TIP3     H2       HT       0.417000       1.00800           0
     19013 TIP3     560      TIP3     OH2      OT      -0.834000       15.9994           0
     19014 TIP3     560      TIP3     H1       HT       0.417000       1.00800           0
     19015 TIP3     560      TIP3     H2       HT       0.417000       1.00800           0
     19016 TIP3     561      TIP3     OH2      OT      -0.834000       15.9994           0
     19017 TIP3     561      TIP3     H1       HT       0.417000       1.00800           0
     19018 TIP3     561      TIP3     H2       HT       0.417000       1.00800           0
     19019 TIP3     562      TIP3     OH2      OT      -0.834000       15.9994           0
     19020 TIP3     562      TIP3     H1       HT       0.417000       1.00800           0
     19021 TIP3     562      TIP3     H2       HT       0.417000       1.00800           0
     19022 TIP3     563      TIP3     OH2      OT      -0.834000       15.9994           0
     19023 TIP3     563      TIP3     H1       HT       0.417000       1.00800           0
     19024 TIP3     563      TIP3     H2       HT       0.417000       1.00800           0
     19025 TIP3     564      TIP3     OH2      OT      -0.834000       15.9994           0
     19026 TIP3     564      TIP3     H1       HT       0.417000       1.00800           0
     19027 TIP3     564      TIP3     H2       HT       0.417000       1.00800           0
     19028 TIP3     565      TIP3     OH2      OT      -0.834000       15.9994           0
     19029 TIP3     565      TIP3     H1       HT       0.417000       1.00800           0
     19030 TIP3     565      TIP3     H2       HT       0.417000       1.00800           0
     19031 TIP3     566      TIP3     OH2      OT      -0.834000       15.9994           0
     19032 TIP3     566      TIP3     H1       HT       0.417000       1.00800           0
     19033 TIP3     566      TIP3     H2       HT       0.417000       1.00800           0
     19034 TIP3     567      TIP3     OH2      OT      -0.834000       15.9994           0
     19035 TIP3     567      TIP3     H1       HT       0.417000       1.00800           0
     19036 TIP3     567      TIP3     H2       HT       0.417000       1.00800           0
     19037 TIP3     568      TIP3     OH2      OT      -0.834000       15.9994           0
     19038 TIP3     568      TIP3     H1       HT       0.417000       1.00800           0
     19039 TIP3     568      TIP3     H2       HT       0.417000       1.00800           0
     19040 TIP3     569      TIP3     OH2      OT      -0.834000       15.9994           0
     19041 TIP3     569      TIP3     H1       HT       0.417000       1.00800           0
     19042 TIP3     569      TIP3     H2       HT       0.417000       1.00800           0
     19043 TIP3     570      TIP3     OH2      OT      -0.834000       15.9994           0
     19044 TIP3     570      TIP3     H1       HT       0.417000       1.00800           0
     19045 TIP3     570      TIP3     H2       HT       0.417000       1.00800           0
     19046 TIP3     571      TIP3     OH2      OT      -0.834000       15.9994           0
     19047 TIP3     571      TIP3     H1       HT       0.417000       1.00800           0
     19048 TIP3     571      TIP3     H2       HT       0.417000       1.00800           0
     19049 TIP3     572      TIP3     OH2      OT      -0.834000       15.9994           0
     19050 TIP3     572      TIP3     H1       HT       0.417000       1.00800           0
     19051 TIP3     572      TIP3     H2       HT       0.417000       1.00800           0
     19052 TIP3     573      TIP3     OH2      OT      -0.834000       15.9994           0
     19053 TIP3     573      TIP3     H1       HT       0.417000       1.00800           0
     19054 TIP3     573      TIP3     H2       HT       0.417000       1.00800           0
     19055 TIP3     574      TIP3     OH2      OT      -0.834000       15.9994           0
     19056 TIP3     574      TIP3     H1       HT       0.417000       1.00800           0
     19057 TIP3     574      TIP3     H2       HT       0.417000       1.00800           0
     19058 TIP3     575      TIP3     OH2      OT      -0.834000       15.9994           0
     19059 TIP3     575      TIP3     H1       HT       0.417000       1.00800           0
     19060 TIP3     575      TIP3     H2       HT       0.417000       1.00800           0
     19061 TIP3     576      TIP3     OH2      OT      -0.834000       15.9994           0
     19062 TIP3     576      TIP3     H1       HT       0.417000       1.00800           0
     19063 TIP3     576      TIP3     H2       HT       0.417000       1.00800           0
     19064 TIP3     577      TIP3     OH2      OT      -0.834000       15.9994           0
     19065 TIP3     577      TIP3     H1       HT       0.417000       1.00800           0
     19066 TIP3     577      TIP3     H2       HT       0.417000       1.00800           0
     19067 TIP3     578      TIP3     OH2      OT      -0.834000       15.9994           0
     19068 TIP3     578      TIP3     H1       HT       0.417000       1.00800           0
     19069 TIP3     578      TIP3     H2       HT       0.417000       1.00800           0
     19070 TIP3     579      TIP3     OH2      OT      -0.834000       15.9994           0
     19071 TIP3     579      TIP3     H1       HT       0.417000       1.00800           0
     19072 TIP3     579      TIP3     H2       HT       0.417000       1.00800           0
     19073 TIP3     580      TIP3     OH2      OT      -0.834000       15.9994           0
     19074 TIP3     580      TIP3     H1       HT       0.417000       1.00800           0
     19075 TIP3     580      TIP3     H2       HT       0.417000       1.00800           0
     19076 TIP3     581      TIP3     OH2      OT      -0.834000       15.9994           0
     19077 TIP3     581      TIP3     H1       HT       0.417000       1.00800           0
     19078 TIP3     581      TIP3     H2       HT       0.417000       1.00800           0
     19079 TIP3     582      TIP3     OH2      OT      -0.834000       15.9994           0
     19080 TIP3     582      TIP3     H1       HT       0.417000       1.00800           0
     19081 TIP3     582      TIP3     H2       HT       0.417000       1.00800           0
     19082 TIP3     583      TIP3     OH2      OT      -0.834000       15.9994           0
     19083 TIP3     583      TIP3     H1       HT       0.417000       1.00800           0
     19084 TIP3     583      TIP3     H2       HT       0.417000       1.00800           0
     19085 TIP3     584      TIP3     OH2      OT      -0.834000       15.9994           0
     19086 TIP3     584      TIP3     H1       HT       0.417000       1.00800           0
     19087 TIP3     584      TIP3     H2       HT       0.417000       1.00800           0
     19088 TIP3     585      TIP3     OH2      OT      -0.834000       15.9994           0
     19089 TIP3     585      TIP3     H1       HT       0.417000       1.00800           0
     19090 TIP3     585      TIP3     H2       HT       0.417000       1.00800           0
     19091 TIP3     586      TIP3     OH2      OT      -0.834000       15.9994           0
     19092 TIP3     586      TIP3     H1       HT       0.417000       1.00800           0
     19093 TIP3     586      TIP3     H2       HT       0.417000       1.00800           0
     19094 TIP3     587      TIP3     OH2      OT      -0.834000       15.9994           0
     19095 TIP3     587      TIP3     H1       HT       0.417000       1.00800           0
     19096 TIP3     587      TIP3     H2       HT       0.417000       1.00800           0
     19097 TIP3     588      TIP3     OH2      OT      -0.834000       15.9994           0
     19098 TIP3     588      TIP3     H1       HT       0.417000       1.00800           0
     19099 TIP3     588      TIP3     H2       HT       0.417000       1.00800           0
     19100 TIP3     589      TIP3     OH2      OT      -0.834000       15.9994           0
     19101 TIP3     589      TIP3     H1       HT       0.417000       1.00800           0
     19102 TIP3     589      TIP3     H2       HT       0.417000       1.00800           0
     19103 TIP3     590      TIP3     OH2      OT      -0.834000       15.9994           0
     19104 TIP3     590      TIP3     H1       HT       0.417000       1.00800           0
     19105 TIP3     590      TIP3     H2       HT       0.417000       1.00800           0
     19106 TIP3     591      TIP3     OH2      OT      -0.834000       15.9994           0
     19107 TIP3     591      TIP3     H1       HT       0.417000       1.00800           0
     19108 TIP3     591      TIP3     H2       HT       0.417000       1.00800           0
     19109 TIP3     592      TIP3     OH2      OT      -0.834000       15.9994           0
     19110 TIP3     592      TIP3     H1       HT       0.417000       1.00800           0
     19111 TIP3     592      TIP3     H2       HT       0.417000       1.00800           0
     19112 TIP3     593      TIP3     OH2      OT      -0.834000       15.9994           0
     19113 TIP3     593      TIP3     H1       HT       0.417000       1.00800           0
     19114 TIP3     593      TIP3     H2       HT       0.417000       1.00800           0
     19115 TIP3     594      TIP3     OH2      OT      -0.834000       15.9994           0
     19116 TIP3     594      TIP3     H1       HT       0.417000       1.00800           0
     19117 TIP3     594      TIP3     H2       HT       0.417000       1.00800           0
     19118 TIP3     595      TIP3     OH2      OT      -0.834000       15.9994           0
     19119 TIP3     595      TIP3     H1       HT       0.417000       1.00800           0
     19120 TIP3     595      TIP3     H2       HT       0.417000       1.00800           0
     19121 TIP3     596      TIP3     OH2      OT      -0.834000       15.9994           0
     19122 TIP3     596      TIP3     H1       HT       0.417000       1.00800           0
     19123 TIP3     596      TIP3     H2       HT       0.417000       1.00800           0
     19124 TIP3     597      TIP3     OH2      OT      -0.834000       15.9994           0
     19125 TIP3     597      TIP3     H1       HT       0.417000       1.00800           0
     19126 TIP3     597      TIP3     H2       HT       0.417000       1.00800           0
     19127 TIP3     598      TIP3     OH2      OT      -0.834000       15.9994           0
     19128 TIP3     598      TIP3     H1       HT       0.417000       1.00800           0
     19129 TIP3     598      TIP3     H2       HT       0.417000       1.00800           0
     19130 TIP3     599      TIP3     OH2      OT      -0.834000       15.9994           0
     19131 TIP3     599      TIP3     H1       HT       0.417000       1.00800           0
     19132 TIP3     599      TIP3     H2       HT       0.417000       1.00800           0
     19133 TIP3     600      TIP3     OH2      OT      -0.834000       15.9994           0
     19134 TIP3     600      TIP3     H1       HT       0.417000       1.00800           0
     19135 TIP3     600      TIP3     H2       HT       0.417000       1.00800           0
     19136 TIP3     601      TIP3     OH2      OT      -0.834000       15.9994           0
     19137 TIP3     601      TIP3     H1       HT       0.417000       1.00800           0
     19138 TIP3     601      TIP3     H2       HT       0.417000       1.00800           0
     19139 TIP3     602      TIP3     OH2      OT      -0.834000       15.9994           0
     19140 TIP3     602      TIP3     H1       HT       0.417000       1.00800           0
     19141 TIP3     602      TIP3     H2       HT       0.417000       1.00800           0
     19142 TIP3     603      TIP3     OH2      OT      -0.834000       15.9994           0
     19143 TIP3     603      TIP3     H1       HT       0.417000       1.00800           0
     19144 TIP3     603      TIP3     H2       HT       0.417000       1.00800           0
     19145 TIP3     604      TIP3     OH2      OT      -0.834000       15.9994           0
     19146 TIP3     604      TIP3     H1       HT       0.417000       1.00800           0
     19147 TIP3     604      TIP3     H2       HT       0.417000       1.00800           0
     19148 TIP3     605      TIP3     OH2      OT      -0.834000       15.9994           0
     19149 TIP3     605      TIP3     H1       HT       0.417000       1.00800           0
     19150 TIP3     605      TIP3     H2       HT       0.417000       1.00800           0
     19151 TIP3     606      TIP3     OH2      OT      -0.834000       15.9994           0
     19152 TIP3     606      TIP3     H1       HT       0.417000       1.00800           0
     19153 TIP3     606      TIP3     H2       HT       0.417000       1.00800           0
     19154 TIP3     607      TIP3     OH2      OT      -0.834000       15.9994           0
     19155 TIP3     607      TIP3     H1       HT       0.417000       1.00800           0
     19156 TIP3     607      TIP3     H2       HT       0.417000       1.00800           0
     19157 TIP3     608      TIP3     OH2      OT      -0.834000       15.9994           0
     19158 TIP3     608      TIP3     H1       HT       0.417000       1.00800           0
     19159 TIP3     608      TIP3     H2       HT       0.417000       1.00800           0
     19160 TIP3     609      TIP3     OH2      OT      -0.834000       15.9994           0
     19161 TIP3     609      TIP3     H1       HT       0.417000       1.00800           0
     19162 TIP3     609      TIP3     H2       HT       0.417000       1.00800           0
     19163 TIP3     610      TIP3     OH2      OT      -0.834000       15.9994           0
     19164 TIP3     610      TIP3     H1       HT       0.417000       1.00800           0
     19165 TIP3     610      TIP3     H2       HT       0.417000       1.00800           0
     19166 TIP3     611      TIP3     OH2      OT      -0.834000       15.9994           0
     19167 TIP3     611      TIP3     H1       HT       0.417000       1.00800           0
     19168 TIP3     611      TIP3     H2       HT       0.417000       1.00800           0
     19169 TIP3     612      TIP3     OH2      OT      -0.834000       15.9994           0
     19170 TIP3     612      TIP3     H1       HT       0.417000       1.00800           0
     19171 TIP3     612      TIP3     H2       HT       0.417000       1.00800           0
     19172 TIP3     613      TIP3     OH2      OT      -0.834000       15.9994           0
     19173 TIP3     613      TIP3     H1       HT       0.417000       1.00800           0
     19174 TIP3     613      TIP3     H2       HT       0.417000       1.00800           0
     19175 TIP3     614      TIP3     OH2      OT      -0.834000       15.9994           0
     19176 TIP3     614      TIP3     H1       HT       0.417000       1.00800           0
     19177 TIP3     614      TIP3     H2       HT       0.417000       1.00800           0
     19178 TIP3     615      TIP3     OH2      OT      -0.834000       15.9994           0
     19179 TIP3     615      TIP3     H1       HT       0.417000       1.00800           0
     19180 TIP3     615      TIP3     H2       HT       0.417000       1.00800           0
     19181 TIP3     616      TIP3     OH2      OT      -0.834000       15.9994           0
     19182 TIP3     616      TIP3     H1       HT       0.417000       1.00800           0
     19183 TIP3     616      TIP3     H2       HT       0.417000       1.00800           0
     19184 TIP3     617      TIP3     OH2      OT      -0.834000       15.9994           0
     19185 TIP3     617      TIP3     H1       HT       0.417000       1.00800           0
     19186 TIP3     617      TIP3     H2       HT       0.417000       1.00800           0
     19187 TIP3     618      TIP3     OH2      OT      -0.834000       15.9994           0
     19188 TIP3     618      TIP3     H1       HT       0.417000       1.00800           0
     19189 TIP3     618      TIP3     H2       HT       0.417000       1.00800           0
     19190 TIP3     619      TIP3     OH2      OT      -0.834000       15.9994           0
     19191 TIP3     619      TIP3     H1       HT       0.417000       1.00800           0
     19192 TIP3     619      TIP3     H2       HT       0.417000       1.00800           0
     19193 TIP3     620      TIP3     OH2      OT      -0.834000       15.9994           0
     19194 TIP3     620      TIP3     H1       HT       0.417000       1.00800           0
     19195 TIP3     620      TIP3     H2       HT       0.417000       1.00800           0
     19196 TIP3     621      TIP3     OH2      OT      -0.834000       15.9994           0
     19197 TIP3     621      TIP3     H1       HT       0.417000       1.00800           0
     19198 TIP3     621      TIP3     H2       HT       0.417000       1.00800           0
     19199 TIP3     622      TIP3     OH2      OT      -0.834000       15.9994           0
     19200 TIP3     622      TIP3     H1       HT       0.417000       1.00800           0
     19201 TIP3     622      TIP3     H2       HT       0.417000       1.00800           0
     19202 TIP3     623      TIP3     OH2      OT      -0.834000       15.9994           0
     19203 TIP3     623      TIP3     H1       HT       0.417000       1.00800           0
     19204 TIP3     623      TIP3     H2       HT       0.417000       1.00800           0
     19205 TIP3     624      TIP3     OH2      OT      -0.834000       15.9994           0
     19206 TIP3     624      TIP3     H1       HT       0.417000       1.00800           0
     19207 TIP3     624      TIP3     H2       HT       0.417000       1.00800           0
     19208 TIP3     625      TIP3     OH2      OT      -0.834000       15.9994           0
     19209 TIP3     625      TIP3     H1       HT       0.417000       1.00800           0
     19210 TIP3     625      TIP3     H2       HT       0.417000       1.00800           0
     19211 TIP3     626      TIP3     OH2      OT      -0.834000       15.9994           0
     19212 TIP3     626      TIP3     H1       HT       0.417000       1.00800           0
     19213 TIP3     626      TIP3     H2       HT       0.417000       1.00800           0
     19214 TIP3     627      TIP3     OH2      OT      -0.834000       15.9994           0
     19215 TIP3     627      TIP3     H1       HT       0.417000       1.00800           0
     19216 TIP3     627      TIP3     H2       HT       0.417000       1.00800           0
     19217 TIP3     628      TIP3     OH2      OT      -0.834000       15.9994           0
     19218 TIP3     628      TIP3     H1       HT       0.417000       1.00800           0
     19219 TIP3     628      TIP3     H2       HT       0.417000       1.00800           0
     19220 TIP3     629      TIP3     OH2      OT      -0.834000       15.9994           0
     19221 TIP3     629      TIP3     H1       HT       0.417000       1.00800           0
     19222 TIP3     629      TIP3     H2       HT       0.417000       1.00800           0
     19223 TIP3     630      TIP3     OH2      OT      -0.834000       15.9994           0
     19224 TIP3     630      TIP3     H1       HT       0.417000       1.00800           0
     19225 TIP3     630      TIP3     H2       HT       0.417000       1.00800           0
     19226 TIP3     631      TIP3     OH2      OT      -0.834000       15.9994           0
     19227 TIP3     631      TIP3     H1       HT       0.417000       1.00800           0
     19228 TIP3     631      TIP3     H2       HT       0.417000       1.00800           0
     19229 TIP3     632      TIP3     OH2      OT      -0.834000       15.9994           0
     19230 TIP3     632      TIP3     H1       HT       0.417000       1.00800           0
     19231 TIP3     632      TIP3     H2       HT       0.417000       1.00800           0
     19232 TIP3     633      TIP3     OH2      OT      -0.834000       15.9994           0
     19233 TIP3     633      TIP3     H1       HT       0.417000       1.00800           0
     19234 TIP3     633      TIP3     H2       HT       0.417000       1.00800           0
     19235 TIP3     634      TIP3     OH2      OT      -0.834000       15.9994           0
     19236 TIP3     634      TIP3     H1       HT       0.417000       1.00800           0
     19237 TIP3     634      TIP3     H2       HT       0.417000       1.00800           0
     19238 TIP3     635      TIP3     OH2      OT      -0.834000       15.9994           0
     19239 TIP3     635      TIP3     H1       HT       0.417000       1.00800           0
     19240 TIP3     635      TIP3     H2       HT       0.417000       1.00800           0
     19241 TIP3     636      TIP3     OH2      OT      -0.834000       15.9994           0
     19242 TIP3     636      TIP3     H1       HT       0.417000       1.00800           0
     19243 TIP3     636      TIP3     H2       HT       0.417000       1.00800           0
     19244 TIP3     637      TIP3     OH2      OT      -0.834000       15.9994           0
     19245 TIP3     637      TIP3     H1       HT       0.417000       1.00800           0
     19246 TIP3     637      TIP3     H2       HT       0.417000       1.00800           0
     19247 TIP3     638      TIP3     OH2      OT      -0.834000       15.9994           0
     19248 TIP3     638      TIP3     H1       HT       0.417000       1.00800           0
     19249 TIP3     638      TIP3     H2       HT       0.417000       1.00800           0
     19250 TIP3     639      TIP3     OH2      OT      -0.834000       15.9994           0
     19251 TIP3     639      TIP3     H1       HT       0.417000       1.00800           0
     19252 TIP3     639      TIP3     H2       HT       0.417000       1.00800           0
     19253 TIP3     640      TIP3     OH2      OT      -0.834000       15.9994           0
     19254 TIP3     640      TIP3     H1       HT       0.417000       1.00800           0
     19255 TIP3     640      TIP3     H2       HT       0.417000       1.00800           0
     19256 TIP3     641      TIP3     OH2      OT      -0.834000       15.9994           0
     19257 TIP3     641      TIP3     H1       HT       0.417000       1.00800           0
     19258 TIP3     641      TIP3     H2       HT       0.417000       1.00800           0
     19259 TIP3     642      TIP3     OH2      OT      -0.834000       15.9994           0
     19260 TIP3     642      TIP3     H1       HT       0.417000       1.00800           0
     19261 TIP3     642      TIP3     H2       HT       0.417000       1.00800           0
     19262 TIP3     643      TIP3     OH2      OT      -0.834000       15.9994           0
     19263 TIP3     643      TIP3     H1       HT       0.417000       1.00800           0
     19264 TIP3     643      TIP3     H2       HT       0.417000       1.00800           0
     19265 TIP3     644      TIP3     OH2      OT      -0.834000       15.9994           0
     19266 TIP3     644      TIP3     H1       HT       0.417000       1.00800           0
     19267 TIP3     644      TIP3     H2       HT       0.417000       1.00800           0
     19268 TIP3     645      TIP3     OH2      OT      -0.834000       15.9994           0
     19269 TIP3     645      TIP3     H1       HT       0.417000       1.00800           0
     19270 TIP3     645      TIP3     H2       HT       0.417000       1.00800           0
     19271 TIP3     646      TIP3     OH2      OT      -0.834000       15.9994           0
     19272 TIP3     646      TIP3     H1       HT       0.417000       1.00800           0
     19273 TIP3     646      TIP3     H2       HT       0.417000       1.00800           0
     19274 TIP3     647      TIP3     OH2      OT      -0.834000       15.9994           0
     19275 TIP3     647      TIP3     H1       HT       0.417000       1.00800           0
     19276 TIP3     647      TIP3     H2       HT       0.417000       1.00800           0
     19277 TIP3     648      TIP3     OH2      OT      -0.834000       15.9994           0
     19278 TIP3     648      TIP3     H1       HT       0.417000       1.00800           0
     19279 TIP3     648      TIP3     H2       HT       0.417000       1.00800           0
     19280 TIP3     649      TIP3     OH2      OT      -0.834000       15.9994           0
     19281 TIP3     649      TIP3     H1       HT       0.417000       1.00800           0
     19282 TIP3     649      TIP3     H2       HT       0.417000       1.00800           0
     19283 TIP3     650      TIP3     OH2      OT      -0.834000       15.9994           0
     19284 TIP3     650      TIP3     H1       HT       0.417000       1.00800           0
     19285 TIP3     650      TIP3     H2       HT       0.417000       1.00800           0
     19286 TIP3     651      TIP3     OH2      OT      -0.834000       15.9994           0
     19287 TIP3     651      TIP3     H1       HT       0.417000       1.00800           0
     19288 TIP3     651      TIP3     H2       HT       0.417000       1.00800           0
     19289 TIP3     652      TIP3     OH2      OT      -0.834000       15.9994           0
     19290 TIP3     652      TIP3     H1       HT       0.417000       1.00800           0
     19291 TIP3     652      TIP3     H2       HT       0.417000       1.00800           0
     19292 TIP3     653      TIP3     OH2      OT      -0.834000       15.9994           0
     19293 TIP3     653      TIP3     H1       HT       0.417000       1.00800           0
     19294 TIP3     653      TIP3     H2       HT       0.417000       1.00800           0
     19295 TIP3     654      TIP3     OH2      OT      -0.834000       15.9994           0
     19296 TIP3     654      TIP3     H1       HT       0.417000       1.00800           0
     19297 TIP3     654      TIP3     H2       HT       0.417000       1.00800           0
     19298 TIP3     655      TIP3     OH2      OT      -0.834000       15.9994           0
     19299 TIP3     655      TIP3     H1       HT       0.417000       1.00800           0
     19300 TIP3     655      TIP3     H2       HT       0.417000       1.00800           0
     19301 TIP3     656      TIP3     OH2      OT      -0.834000       15.9994           0
     19302 TIP3     656      TIP3     H1       HT       0.417000       1.00800           0
     19303 TIP3     656      TIP3     H2       HT       0.417000       1.00800           0
     19304 TIP3     657      TIP3     OH2      OT      -0.834000       15.9994           0
     19305 TIP3     657      TIP3     H1       HT       0.417000       1.00800           0
     19306 TIP3     657      TIP3     H2       HT       0.417000       1.00800           0
     19307 TIP3     658      TIP3     OH2      OT      -0.834000       15.9994           0
     19308 TIP3     658      TIP3     H1       HT       0.417000       1.00800           0
     19309 TIP3     658      TIP3     H2       HT       0.417000       1.00800           0
     19310 TIP3     659      TIP3     OH2      OT      -0.834000       15.9994           0
     19311 TIP3     659      TIP3     H1       HT       0.417000       1.00800           0
     19312 TIP3     659      TIP3     H2       HT       0.417000       1.00800           0
     19313 TIP3     660      TIP3     OH2      OT      -0.834000       15.9994           0
     19314 TIP3     660      TIP3     H1       HT       0.417000       1.00800           0
     19315 TIP3     660      TIP3     H2       HT       0.417000       1.00800           0
     19316 TIP3     661      TIP3     OH2      OT      -0.834000       15.9994           0
     19317 TIP3     661      TIP3     H1       HT       0.417000       1.00800           0
     19318 TIP3     661      TIP3     H2       HT       0.417000       1.00800           0
     19319 TIP3     662      TIP3     OH2      OT      -0.834000       15.9994           0
     19320 TIP3     662      TIP3     H1       HT       0.417000       1.00800           0
     19321 TIP3     662      TIP3     H2       HT       0.417000       1.00800           0
     19322 TIP3     663      TIP3     OH2      OT      -0.834000       15.9994           0
     19323 TIP3     663      TIP3     H1       HT       0.417000       1.00800           0
     19324 TIP3     663      TIP3     H2       HT       0.417000       1.00800           0
     19325 TIP3     664      TIP3     OH2      OT      -0.834000       15.9994           0
     19326 TIP3     664      TIP3     H1       HT       0.417000       1.00800           0
     19327 TIP3     664      TIP3     H2       HT       0.417000       1.00800           0
     19328 TIP3     665      TIP3     OH2      OT      -0.834000       15.9994           0
     19329 TIP3     665      TIP3     H1       HT       0.417000       1.00800           0
     19330 TIP3     665      TIP3     H2       HT       0.417000       1.00800           0
     19331 TIP3     666      TIP3     OH2      OT      -0.834000       15.9994           0
     19332 TIP3     666      TIP3     H1       HT       0.417000       1.00800           0
     19333 TIP3     666      TIP3     H2       HT       0.417000       1.00800           0
     19334 TIP3     667      TIP3     OH2      OT      -0.834000       15.9994           0
     19335 TIP3     667      TIP3     H1       HT       0.417000       1.00800           0
     19336 TIP3     667      TIP3     H2       HT       0.417000       1.00800           0
     19337 TIP3     668      TIP3     OH2      OT      -0.834000       15.9994           0
     19338 TIP3     668      TIP3     H1       HT       0.417000       1.00800           0
     19339 TIP3     668      TIP3     H2       HT       0.417000       1.00800           0
     19340 TIP3     669      TIP3     OH2      OT      -0.834000       15.9994           0
     19341 TIP3     669      TIP3     H1       HT       0.417000       1.00800           0
     19342 TIP3     669      TIP3     H2       HT       0.417000       1.00800           0
     19343 TIP3     670      TIP3     OH2      OT      -0.834000       15.9994           0
     19344 TIP3     670      TIP3     H1       HT       0.417000       1.00800           0
     19345 TIP3     670      TIP3     H2       HT       0.417000       1.00800           0
     19346 TIP3     671      TIP3     OH2      OT      -0.834000       15.9994           0
     19347 TIP3     671      TIP3     H1       HT       0.417000       1.00800           0
     19348 TIP3     671      TIP3     H2       HT       0.417000       1.00800           0
     19349 TIP3     672      TIP3     OH2      OT      -0.834000       15.9994           0
     19350 TIP3     672      TIP3     H1       HT       0.417000       1.00800           0
     19351 TIP3     672      TIP3     H2       HT       0.417000       1.00800           0
     19352 TIP3     673      TIP3     OH2      OT      -0.834000       15.9994           0
     19353 TIP3     673      TIP3     H1       HT       0.417000       1.00800           0
     19354 TIP3     673      TIP3     H2       HT       0.417000       1.00800           0
     19355 TIP3     674      TIP3     OH2      OT      -0.834000       15.9994           0
     19356 TIP3     674      TIP3     H1       HT       0.417000       1.00800           0
     19357 TIP3     674      TIP3     H2       HT       0.417000       1.00800           0
     19358 TIP3     675      TIP3     OH2      OT      -0.834000       15.9994           0
     19359 TIP3     675      TIP3     H1       HT       0.417000       1.00800           0
     19360 TIP3     675      TIP3     H2       HT       0.417000       1.00800           0
     19361 TIP3     676      TIP3     OH2      OT      -0.834000       15.9994           0
     19362 TIP3     676      TIP3     H1       HT       0.417000       1.00800           0
     19363 TIP3     676      TIP3     H2       HT       0.417000       1.00800           0
     19364 TIP3     677      TIP3     OH2      OT      -0.834000       15.9994           0
     19365 TIP3     677      TIP3     H1       HT       0.417000       1.00800           0
     19366 TIP3     677      TIP3     H2       HT       0.417000       1.00800           0
     19367 TIP3     678      TIP3     OH2      OT      -0.834000       15.9994           0
     19368 TIP3     678      TIP3     H1       HT       0.417000       1.00800           0
     19369 TIP3     678      TIP3     H2       HT       0.417000       1.00800           0
     19370 TIP3     679      TIP3     OH2      OT      -0.834000       15.9994           0
     19371 TIP3     679      TIP3     H1       HT       0.417000       1.00800           0
     19372 TIP3     679      TIP3     H2       HT       0.417000       1.00800           0
     19373 TIP3     680      TIP3     OH2      OT      -0.834000       15.9994           0
     19374 TIP3     680      TIP3     H1       HT       0.417000       1.00800           0
     19375 TIP3     680      TIP3     H2       HT       0.417000       1.00800           0
     19376 TIP3     681      TIP3     OH2      OT      -0.834000       15.9994           0
     19377 TIP3     681      TIP3     H1       HT       0.417000       1.00800           0
     19378 TIP3     681      TIP3     H2       HT       0.417000       1.00800           0
     19379 TIP3     682      TIP3     OH2      OT      -0.834000       15.9994           0
     19380 TIP3     682      TIP3     H1       HT       0.417000       1.00800           0
     19381 TIP3     682      TIP3     H2       HT       0.417000       1.00800           0
     19382 TIP3     683      TIP3     OH2      OT      -0.834000       15.9994           0
     19383 TIP3     683      TIP3     H1       HT       0.417000       1.00800           0
     19384 TIP3     683      TIP3     H2       HT       0.417000       1.00800           0
     19385 TIP3     684      TIP3     OH2      OT      -0.834000       15.9994           0
     19386 TIP3     684      TIP3     H1       HT       0.417000       1.00800           0
     19387 TIP3     684      TIP3     H2       HT       0.417000       1.00800           0
     19388 TIP3     685      TIP3     OH2      OT      -0.834000       15.9994           0
     19389 TIP3     685      TIP3     H1       HT       0.417000       1.00800           0
     19390 TIP3     685      TIP3     H2       HT       0.417000       1.00800           0
     19391 TIP3     686      TIP3     OH2      OT      -0.834000       15.9994           0
     19392 TIP3     686      TIP3     H1       HT       0.417000       1.00800           0
     19393 TIP3     686      TIP3     H2       HT       0.417000       1.00800           0
     19394 TIP3     687      TIP3     OH2      OT      -0.834000       15.9994           0
     19395 TIP3     687      TIP3     H1       HT       0.417000       1.00800           0
     19396 TIP3     687      TIP3     H2       HT       0.417000       1.00800           0
     19397 TIP3     688      TIP3     OH2      OT      -0.834000       15.9994           0
     19398 TIP3     688      TIP3     H1       HT       0.417000       1.00800           0
     19399 TIP3     688      TIP3     H2       HT       0.417000       1.00800           0
     19400 TIP3     689      TIP3     OH2      OT      -0.834000       15.9994           0
     19401 TIP3     689      TIP3     H1       HT       0.417000       1.00800           0
     19402 TIP3     689      TIP3     H2       HT       0.417000       1.00800           0
     19403 TIP3     690      TIP3     OH2      OT      -0.834000       15.9994           0
     19404 TIP3     690      TIP3     H1       HT       0.417000       1.00800           0
     19405 TIP3     690      TIP3     H2       HT       0.417000       1.00800           0
     19406 TIP3     691      TIP3     OH2      OT      -0.834000       15.9994           0
     19407 TIP3     691      TIP3     H1       HT       0.417000       1.00800           0
     19408 TIP3     691      TIP3     H2       HT       0.417000       1.00800           0
     19409 TIP3     692      TIP3     OH2      OT      -0.834000       15.9994           0
     19410 TIP3     692      TIP3     H1       HT       0.417000       1.00800           0
     19411 TIP3     692      TIP3     H2       HT       0.417000       1.00800           0
     19412 TIP3     693      TIP3     OH2      OT      -0.834000       15.9994           0
     19413 TIP3     693      TIP3     H1       HT       0.417000       1.00800           0
     19414 TIP3     693      TIP3     H2       HT       0.417000       1.00800           0
     19415 TIP3     694      TIP3     OH2      OT      -0.834000       15.9994           0
     19416 TIP3     694      TIP3     H1       HT       0.417000       1.00800           0
     19417 TIP3     694      TIP3     H2       HT       0.417000       1.00800           0
     19418 TIP3     695      TIP3     OH2      OT      -0.834000       15.9994           0
     19419 TIP3     695      TIP3     H1       HT       0.417000       1.00800           0
     19420 TIP3     695      TIP3     H2       HT       0.417000       1.00800           0
     19421 TIP3     696      TIP3     OH2      OT      -0.834000       15.9994           0
     19422 TIP3     696      TIP3     H1       HT       0.417000       1.00800           0
     19423 TIP3     696      TIP3     H2       HT       0.417000       1.00800           0
     19424 TIP3     697      TIP3     OH2      OT      -0.834000       15.9994           0
     19425 TIP3     697      TIP3     H1       HT       0.417000       1.00800           0
     19426 TIP3     697      TIP3     H2       HT       0.417000       1.00800           0
     19427 TIP3     698      TIP3     OH2      OT      -0.834000       15.9994           0
     19428 TIP3     698      TIP3     H1       HT       0.417000       1.00800           0
     19429 TIP3     698      TIP3     H2       HT       0.417000       1.00800           0
     19430 TIP3     699      TIP3     OH2      OT      -0.834000       15.9994           0
     19431 TIP3     699      TIP3     H1       HT       0.417000       1.00800           0
     19432 TIP3     699      TIP3     H2       HT       0.417000       1.00800           0
     19433 TIP3     700      TIP3     OH2      OT      -0.834000       15.9994           0
     19434 TIP3     700      TIP3     H1       HT       0.417000       1.00800           0
     19435 TIP3     700      TIP3     H2       HT       0.417000       1.00800           0
     19436 TIP3     701      TIP3     OH2      OT      -0.834000       15.9994           0
     19437 TIP3     701      TIP3     H1       HT       0.417000       1.00800           0
     19438 TIP3     701      TIP3     H2       HT       0.417000       1.00800           0
     19439 TIP3     702      TIP3     OH2      OT      -0.834000       15.9994           0
     19440 TIP3     702      TIP3     H1       HT       0.417000       1.00800           0
     19441 TIP3     702      TIP3     H2       HT       0.417000       1.00800           0
     19442 TIP3     703      TIP3     OH2      OT      -0.834000       15.9994           0
     19443 TIP3     703      TIP3     H1       HT       0.417000       1.00800           0
     19444 TIP3     703      TIP3     H2       HT       0.417000       1.00800           0
     19445 TIP3     704      TIP3     OH2      OT      -0.834000       15.9994           0
     19446 TIP3     704      TIP3     H1       HT       0.417000       1.00800           0
     19447 TIP3     704      TIP3     H2       HT       0.417000       1.00800           0
     19448 TIP3     705      TIP3     OH2      OT      -0.834000       15.9994           0
     19449 TIP3     705      TIP3     H1       HT       0.417000       1.00800           0
     19450 TIP3     705      TIP3     H2       HT       0.417000       1.00800           0
     19451 TIP3     706      TIP3     OH2      OT      -0.834000       15.9994           0
     19452 TIP3     706      TIP3     H1       HT       0.417000       1.00800           0
     19453 TIP3     706      TIP3     H2       HT       0.417000       1.00800           0
     19454 TIP3     707      TIP3     OH2      OT      -0.834000       15.9994           0
     19455 TIP3     707      TIP3     H1       HT       0.417000       1.00800           0
     19456 TIP3     707      TIP3     H2       HT       0.417000       1.00800           0
     19457 TIP3     708      TIP3     OH2      OT      -0.834000       15.9994           0
     19458 TIP3     708      TIP3     H1       HT       0.417000       1.00800           0
     19459 TIP3     708      TIP3     H2       HT       0.417000       1.00800           0
     19460 TIP3     709      TIP3     OH2      OT      -0.834000       15.9994           0
     19461 TIP3     709      TIP3     H1       HT       0.417000       1.00800           0
     19462 TIP3     709      TIP3     H2       HT       0.417000       1.00800           0
     19463 TIP3     710      TIP3     OH2      OT      -0.834000       15.9994           0
     19464 TIP3     710      TIP3     H1       HT       0.417000       1.00800           0
     19465 TIP3     710      TIP3     H2       HT       0.417000       1.00800           0
     19466 TIP3     711      TIP3     OH2      OT      -0.834000       15.9994           0
     19467 TIP3     711      TIP3     H1       HT       0.417000       1.00800           0
     19468 TIP3     711      TIP3     H2       HT       0.417000       1.00800           0
     19469 TIP3     712      TIP3     OH2      OT      -0.834000       15.9994           0
     19470 TIP3     712      TIP3     H1       HT       0.417000       1.00800           0
     19471 TIP3     712      TIP3     H2       HT       0.417000       1.00800           0
     19472 TIP3     713      TIP3     OH2      OT      -0.834000       15.9994           0
     19473 TIP3     713      TIP3     H1       HT       0.417000       1.00800           0
     19474 TIP3     713      TIP3     H2       HT       0.417000       1.00800           0
     19475 TIP3     714      TIP3     OH2      OT      -0.834000       15.9994           0
     19476 TIP3     714      TIP3     H1       HT       0.417000       1.00800           0
     19477 TIP3     714      TIP3     H2       HT       0.417000       1.00800           0
     19478 TIP3     715      TIP3     OH2      OT      -0.834000       15.9994           0
     19479 TIP3     715      TIP3     H1       HT       0.417000       1.00800           0
     19480 TIP3     715      TIP3     H2       HT       0.417000       1.00800           0
     19481 TIP3     716      TIP3     OH2      OT      -0.834000       15.9994           0
     19482 TIP3     716      TIP3     H1       HT       0.417000       1.00800           0
     19483 TIP3     716      TIP3     H2       HT       0.417000       1.00800           0
     19484 TIP3     717      TIP3     OH2      OT      -0.834000       15.9994           0
     19485 TIP3     717      TIP3     H1       HT       0.417000       1.00800           0
     19486 TIP3     717      TIP3     H2       HT       0.417000       1.00800           0
     19487 TIP3     718      TIP3     OH2      OT      -0.834000       15.9994           0
     19488 TIP3     718      TIP3     H1       HT       0.417000       1.00800           0
     19489 TIP3     718      TIP3     H2       HT       0.417000       1.00800           0
     19490 TIP3     719      TIP3     OH2      OT      -0.834000       15.9994           0
     19491 TIP3     719      TIP3     H1       HT       0.417000       1.00800           0
     19492 TIP3     719      TIP3     H2       HT       0.417000       1.00800           0
     19493 TIP3     720      TIP3     OH2      OT      -0.834000       15.9994           0
     19494 TIP3     720      TIP3     H1       HT       0.417000       1.00800           0
     19495 TIP3     720      TIP3     H2       HT       0.417000       1.00800           0
     19496 TIP3     721      TIP3     OH2      OT      -0.834000       15.9994           0
     19497 TIP3     721      TIP3     H1       HT       0.417000       1.00800           0
     19498 TIP3     721      TIP3     H2       HT       0.417000       1.00800           0
     19499 TIP3     722      TIP3     OH2      OT      -0.834000       15.9994           0
     19500 TIP3     722      TIP3     H1       HT       0.417000       1.00800           0
     19501 TIP3     722      TIP3     H2       HT       0.417000       1.00800           0
     19502 TIP3     723      TIP3     OH2      OT      -0.834000       15.9994           0
     19503 TIP3     723      TIP3     H1       HT       0.417000       1.00800           0
     19504 TIP3     723      TIP3     H2       HT       0.417000       1.00800           0
     19505 TIP3     724      TIP3     OH2      OT      -0.834000       15.9994           0
     19506 TIP3     724      TIP3     H1       HT       0.417000       1.00800           0
     19507 TIP3     724      TIP3     H2       HT       0.417000       1.00800           0
     19508 TIP3     725      TIP3     OH2      OT      -0.834000       15.9994           0
     19509 TIP3     725      TIP3     H1       HT       0.417000       1.00800           0
     19510 TIP3     725      TIP3     H2       HT       0.417000       1.00800           0
     19511 TIP3     726      TIP3     OH2      OT      -0.834000       15.9994           0
     19512 TIP3     726      TIP3     H1       HT       0.417000       1.00800           0
     19513 TIP3     726      TIP3     H2       HT       0.417000       1.00800           0
     19514 TIP3     727      TIP3     OH2      OT      -0.834000       15.9994           0
     19515 TIP3     727      TIP3     H1       HT       0.417000       1.00800           0
     19516 TIP3     727      TIP3     H2       HT       0.417000       1.00800           0
     19517 TIP3     728      TIP3     OH2      OT      -0.834000       15.9994           0
     19518 TIP3     728      TIP3     H1       HT       0.417000       1.00800           0
     19519 TIP3     728      TIP3     H2       HT       0.417000       1.00800           0
     19520 TIP3     729      TIP3     OH2      OT      -0.834000       15.9994           0
     19521 TIP3     729      TIP3     H1       HT       0.417000       1.00800           0
     19522 TIP3     729      TIP3     H2       HT       0.417000       1.00800           0
     19523 TIP3     730      TIP3     OH2      OT      -0.834000       15.9994           0
     19524 TIP3     730      TIP3     H1       HT       0.417000       1.00800           0
     19525 TIP3     730      TIP3     H2       HT       0.417000       1.00800           0
     19526 TIP3     731      TIP3     OH2      OT      -0.834000       15.9994           0
     19527 TIP3     731      TIP3     H1       HT       0.417000       1.00800           0
     19528 TIP3     731      TIP3     H2       HT       0.417000       1.00800           0
     19529 TIP3     732      TIP3     OH2      OT      -0.834000       15.9994           0
     19530 TIP3     732      TIP3     H1       HT       0.417000       1.00800           0
     19531 TIP3     732      TIP3     H2       HT       0.417000       1.00800           0
     19532 TIP3     733      TIP3     OH2      OT      -0.834000       15.9994           0
     19533 TIP3     733      TIP3     H1       HT       0.417000       1.00800           0
     19534 TIP3     733      TIP3     H2       HT       0.417000       1.00800           0
     19535 TIP3     734      TIP3     OH2      OT      -0.834000       15.9994           0
     19536 TIP3     734      TIP3     H1       HT       0.417000       1.00800           0
     19537 TIP3     734      TIP3     H2       HT       0.417000       1.00800           0
     19538 TIP3     735      TIP3     OH2      OT      -0.834000       15.9994           0
     19539 TIP3     735      TIP3     H1       HT       0.417000       1.00800           0
     19540 TIP3     735      TIP3     H2       HT       0.417000       1.00800           0
     19541 TIP3     736      TIP3     OH2      OT      -0.834000       15.9994           0
     19542 TIP3     736      TIP3     H1       HT       0.417000       1.00800           0
     19543 TIP3     736      TIP3     H2       HT       0.417000       1.00800           0
     19544 TIP3     737      TIP3     OH2      OT      -0.834000       15.9994           0
     19545 TIP3     737      TIP3     H1       HT       0.417000       1.00800           0
     19546 TIP3     737      TIP3     H2       HT       0.417000       1.00800           0
     19547 TIP3     738      TIP3     OH2      OT      -0.834000       15.9994           0
     19548 TIP3     738      TIP3     H1       HT       0.417000       1.00800           0
     19549 TIP3     738      TIP3     H2       HT       0.417000       1.00800           0
     19550 TIP3     739      TIP3     OH2      OT      -0.834000       15.9994           0
     19551 TIP3     739      TIP3     H1       HT       0.417000       1.00800           0
     19552 TIP3     739      TIP3     H2       HT       0.417000       1.00800           0
     19553 TIP3     740      TIP3     OH2      OT      -0.834000       15.9994           0
     19554 TIP3     740      TIP3     H1       HT       0.417000       1.00800           0
     19555 TIP3     740      TIP3     H2       HT       0.417000       1.00800           0
     19556 TIP3     741      TIP3     OH2      OT      -0.834000       15.9994           0
     19557 TIP3     741      TIP3     H1       HT       0.417000       1.00800           0
     19558 TIP3     741      TIP3     H2       HT       0.417000       1.00800           0
     19559 TIP3     742      TIP3     OH2      OT      -0.834000       15.9994           0
     19560 TIP3     742      TIP3     H1       HT       0.417000       1.00800           0
     19561 TIP3     742      TIP3     H2       HT       0.417000       1.00800           0
     19562 TIP3     743      TIP3     OH2      OT      -0.834000       15.9994           0
     19563 TIP3     743      TIP3     H1       HT       0.417000       1.00800           0
     19564 TIP3     743      TIP3     H2       HT       0.417000       1.00800           0
     19565 TIP3     744      TIP3     OH2      OT      -0.834000       15.9994           0
     19566 TIP3     744      TIP3     H1       HT       0.417000       1.00800           0
     19567 TIP3     744      TIP3     H2       HT       0.417000       1.00800           0
     19568 TIP3     745      TIP3     OH2      OT      -0.834000       15.9994           0
     19569 TIP3     745      TIP3     H1       HT       0.417000       1.00800           0
     19570 TIP3     745      TIP3     H2       HT       0.417000       1.00800           0
     19571 TIP3     746      TIP3     OH2      OT      -0.834000       15.9994           0
     19572 TIP3     746      TIP3     H1       HT       0.417000       1.00800           0
     19573 TIP3     746      TIP3     H2       HT       0.417000       1.00800           0
     19574 TIP3     747      TIP3     OH2      OT      -0.834000       15.9994           0
     19575 TIP3     747      TIP3     H1       HT       0.417000       1.00800           0
     19576 TIP3     747      TIP3     H2       HT       0.417000       1.00800           0
     19577 TIP3     748      TIP3     OH2      OT      -0.834000       15.9994           0
     19578 TIP3     748      TIP3     H1       HT       0.417000       1.00800           0
     19579 TIP3     748      TIP3     H2       HT       0.417000       1.00800           0
     19580 TIP3     749      TIP3     OH2      OT      -0.834000       15.9994           0
     19581 TIP3     749      TIP3     H1       HT       0.417000       1.00800           0
     19582 TIP3     749      TIP3     H2       HT       0.417000       1.00800           0
     19583 TIP3     750      TIP3     OH2      OT      -0.834000       15.9994           0
     19584 TIP3     750      TIP3     H1       HT       0.417000       1.00800           0
     19585 TIP3     750      TIP3     H2       HT       0.417000       1.00800           0
     19586 TIP3     751      TIP3     OH2      OT      -0.834000       15.9994           0
     19587 TIP3     751      TIP3     H1       HT       0.417000       1.00800           0
     19588 TIP3     751      TIP3     H2       HT       0.417000       1.00800           0
     19589 TIP3     752      TIP3     OH2      OT      -0.834000       15.9994           0
     19590 TIP3     752      TIP3     H1       HT       0.417000       1.00800           0
     19591 TIP3     752      TIP3     H2       HT       0.417000       1.00800           0
     19592 TIP3     753      TIP3     OH2      OT      -0.834000       15.9994           0
     19593 TIP3     753      TIP3     H1       HT       0.417000       1.00800           0
     19594 TIP3     753      TIP3     H2       HT       0.417000       1.00800           0
     19595 TIP3     754      TIP3     OH2      OT      -0.834000       15.9994           0
     19596 TIP3     754      TIP3     H1       HT       0.417000       1.00800           0
     19597 TIP3     754      TIP3     H2       HT       0.417000       1.00800           0
     19598 TIP3     755      TIP3     OH2      OT      -0.834000       15.9994           0
     19599 TIP3     755      TIP3     H1       HT       0.417000       1.00800           0
     19600 TIP3     755      TIP3     H2       HT       0.417000       1.00800           0
     19601 TIP3     756      TIP3     OH2      OT      -0.834000       15.9994           0
     19602 TIP3     756      TIP3     H1       HT       0.417000       1.00800           0
     19603 TIP3     756      TIP3     H2       HT       0.417000       1.00800           0
     19604 TIP3     757      TIP3     OH2      OT      -0.834000       15.9994           0
     19605 TIP3     757      TIP3     H1       HT       0.417000       1.00800           0
     19606 TIP3     757      TIP3     H2       HT       0.417000       1.00800           0
     19607 TIP3     758      TIP3     OH2      OT      -0.834000       15.9994           0
     19608 TIP3     758      TIP3     H1       HT       0.417000       1.00800           0
     19609 TIP3     758      TIP3     H2       HT       0.417000       1.00800           0
     19610 TIP3     759      TIP3     OH2      OT      -0.834000       15.9994           0
     19611 TIP3     759      TIP3     H1       HT       0.417000       1.00800           0
     19612 TIP3     759      TIP3     H2       HT       0.417000       1.00800           0
     19613 TIP3     760      TIP3     OH2      OT      -0.834000       15.9994           0
     19614 TIP3     760      TIP3     H1       HT       0.417000       1.00800           0
     19615 TIP3     760      TIP3     H2       HT       0.417000       1.00800           0
     19616 TIP3     761      TIP3     OH2      OT      -0.834000       15.9994           0
     19617 TIP3     761      TIP3     H1       HT       0.417000       1.00800           0
     19618 TIP3     761      TIP3     H2       HT       0.417000       1.00800           0
     19619 TIP3     762      TIP3     OH2      OT      -0.834000       15.9994           0
     19620 TIP3     762      TIP3     H1       HT       0.417000       1.00800           0
     19621 TIP3     762      TIP3     H2       HT       0.417000       1.00800           0
     19622 TIP3     763      TIP3     OH2      OT      -0.834000       15.9994           0
     19623 TIP3     763      TIP3     H1       HT       0.417000       1.00800           0
     19624 TIP3     763      TIP3     H2       HT       0.417000       1.00800           0
     19625 TIP3     764      TIP3     OH2      OT      -0.834000       15.9994           0
     19626 TIP3     764      TIP3     H1       HT       0.417000       1.00800           0
     19627 TIP3     764      TIP3     H2       HT       0.417000       1.00800           0
     19628 TIP3     765      TIP3     OH2      OT      -0.834000       15.9994           0
     19629 TIP3     765      TIP3     H1       HT       0.417000       1.00800           0
     19630 TIP3     765      TIP3     H2       HT       0.417000       1.00800           0
     19631 TIP3     766      TIP3     OH2      OT      -0.834000       15.9994           0
     19632 TIP3     766      TIP3     H1       HT       0.417000       1.00800           0
     19633 TIP3     766      TIP3     H2       HT       0.417000       1.00800           0
     19634 TIP3     767      TIP3     OH2      OT      -0.834000       15.9994           0
     19635 TIP3     767      TIP3     H1       HT       0.417000       1.00800           0
     19636 TIP3     767      TIP3     H2       HT       0.417000       1.00800           0
     19637 TIP3     768      TIP3     OH2      OT      -0.834000       15.9994           0
     19638 TIP3     768      TIP3     H1       HT       0.417000       1.00800           0
     19639 TIP3     768      TIP3     H2       HT       0.417000       1.00800           0
     19640 TIP3     769      TIP3     OH2      OT      -0.834000       15.9994           0
     19641 TIP3     769      TIP3     H1       HT       0.417000       1.00800           0
     19642 TIP3     769      TIP3     H2       HT       0.417000       1.00800           0
     19643 TIP3     770      TIP3     OH2      OT      -0.834000       15.9994           0
     19644 TIP3     770      TIP3     H1       HT       0.417000       1.00800           0
     19645 TIP3     770      TIP3     H2       HT       0.417000       1.00800           0
     19646 TIP3     771      TIP3     OH2      OT      -0.834000       15.9994           0
     19647 TIP3     771      TIP3     H1       HT       0.417000       1.00800           0
     19648 TIP3     771      TIP3     H2       HT       0.417000       1.00800           0
     19649 TIP3     772      TIP3     OH2      OT      -0.834000       15.9994           0
     19650 TIP3     772      TIP3     H1       HT       0.417000       1.00800           0
     19651 TIP3     772      TIP3     H2       HT       0.417000       1.00800           0
     19652 TIP3     773      TIP3     OH2      OT      -0.834000       15.9994           0
     19653 TIP3     773      TIP3     H1       HT       0.417000       1.00800           0
     19654 TIP3     773      TIP3     H2       HT       0.417000       1.00800           0
     19655 TIP3     774      TIP3     OH2      OT      -0.834000       15.9994           0
     19656 TIP3     774      TIP3     H1       HT       0.417000       1.00800           0
     19657 TIP3     774      TIP3     H2       HT       0.417000       1.00800           0
     19658 TIP3     775      TIP3     OH2      OT      -0.834000       15.9994           0
     19659 TIP3     775      TIP3     H1       HT       0.417000       1.00800           0
     19660 TIP3     775      TIP3     H2       HT       0.417000       1.00800           0
     19661 TIP3     776      TIP3     OH2      OT      -0.834000       15.9994           0
     19662 TIP3     776      TIP3     H1       HT       0.417000       1.00800           0
     19663 TIP3     776      TIP3     H2       HT       0.417000       1.00800           0
     19664 TIP3     777      TIP3     OH2      OT      -0.834000       15.9994           0
     19665 TIP3     777      TIP3     H1       HT       0.417000       1.00800           0
     19666 TIP3     777      TIP3     H2       HT       0.417000       1.00800           0
     19667 TIP3     778      TIP3     OH2      OT      -0.834000       15.9994           0
     19668 TIP3     778      TIP3     H1       HT       0.417000       1.00800           0
     19669 TIP3     778      TIP3     H2       HT       0.417000       1.00800           0
     19670 TIP3     779      TIP3     OH2      OT      -0.834000       15.9994           0
     19671 TIP3     779      TIP3     H1       HT       0.417000       1.00800           0
     19672 TIP3     779      TIP3     H2       HT       0.417000       1.00800           0
     19673 TIP3     780      TIP3     OH2      OT      -0.834000       15.9994           0
     19674 TIP3     780      TIP3     H1       HT       0.417000       1.00800           0
     19675 TIP3     780      TIP3     H2       HT       0.417000       1.00800           0
     19676 TIP3     781      TIP3     OH2      OT      -0.834000       15.9994           0
     19677 TIP3     781      TIP3     H1       HT       0.417000       1.00800           0
     19678 TIP3     781      TIP3     H2       HT       0.417000       1.00800           0
     19679 TIP3     782      TIP3     OH2      OT      -0.834000       15.9994           0
     19680 TIP3     782      TIP3     H1       HT       0.417000       1.00800           0
     19681 TIP3     782      TIP3     H2       HT       0.417000       1.00800           0
     19682 TIP3     783      TIP3     OH2      OT      -0.834000       15.9994           0
     19683 TIP3     783      TIP3     H1       HT       0.417000       1.00800           0
     19684 TIP3     783      TIP3     H2       HT       0.417000       1.00800           0
     19685 TIP3     784      TIP3     OH2      OT      -0.834000       15.9994           0
     19686 TIP3     784      TIP3     H1       HT       0.417000       1.00800           0
     19687 TIP3     784      TIP3     H2       HT       0.417000       1.00800           0
     19688 TIP3     785      TIP3     OH2      OT      -0.834000       15.9994           0
     19689 TIP3     785      TIP3     H1       HT       0.417000       1.00800           0
     19690 TIP3     785      TIP3     H2       HT       0.417000       1.00800           0
     19691 TIP3     786      TIP3     OH2      OT      -0.834000       15.9994           0
     19692 TIP3     786      TIP3     H1       HT       0.417000       1.00800           0
     19693 TIP3     786      TIP3     H2       HT       0.417000       1.00800           0
     19694 TIP3     787      TIP3     OH2      OT      -0.834000       15.9994           0
     19695 TIP3     787      TIP3     H1       HT       0.417000       1.00800           0
     19696 TIP3     787      TIP3     H2       HT       0.417000       1.00800           0
     19697 TIP3     788      TIP3     OH2      OT      -0.834000       15.9994           0
     19698 TIP3     788      TIP3     H1       HT       0.417000       1.00800           0
     19699 TIP3     788      TIP3     H2       HT       0.417000       1.00800           0
     19700 TIP3     789      TIP3     OH2      OT      -0.834000       15.9994           0
     19701 TIP3     789      TIP3     H1       HT       0.417000       1.00800           0
     19702 TIP3     789      TIP3     H2       HT       0.417000       1.00800           0
     19703 TIP3     790      TIP3     OH2      OT      -0.834000       15.9994           0
     19704 TIP3     790      TIP3     H1       HT       0.417000       1.00800           0
     19705 TIP3     790      TIP3     H2       HT       0.417000       1.00800           0
     19706 TIP3     791      TIP3     OH2      OT      -0.834000       15.9994           0
     19707 TIP3     791      TIP3     H1       HT       0.417000       1.00800           0
     19708 TIP3     791      TIP3     H2       HT       0.417000       1.00800           0
     19709 TIP3     792      TIP3     OH2      OT      -0.834000       15.9994           0
     19710 TIP3     792      TIP3     H1       HT       0.417000       1.00800           0
     19711 TIP3     792      TIP3     H2       HT       0.417000       1.00800           0
     19712 TIP3     793      TIP3     OH2      OT      -0.834000       15.9994           0
     19713 TIP3     793      TIP3     H1       HT       0.417000       1.00800           0
     19714 TIP3     793      TIP3     H2       HT       0.417000       1.00800           0
     19715 TIP3     794      TIP3     OH2      OT      -0.834000       15.9994           0
     19716 TIP3     794      TIP3     H1       HT       0.417000       1.00800           0
     19717 TIP3     794      TIP3     H2       HT       0.417000       1.00800           0
     19718 TIP3     795      TIP3     OH2      OT      -0.834000       15.9994           0
     19719 TIP3     795      TIP3     H1       HT       0.417000       1.00800           0
     19720 TIP3     795      TIP3     H2       HT       0.417000       1.00800           0
     19721 TIP3     796      TIP3     OH2      OT      -0.834000       15.9994           0
     19722 TIP3     796      TIP3     H1       HT       0.417000       1.00800           0
     19723 TIP3     796      TIP3     H2       HT       0.417000       1.00800           0
     19724 TIP3     797      TIP3     OH2      OT      -0.834000       15.9994           0
     19725 TIP3     797      TIP3     H1       HT       0.417000       1.00800           0
     19726 TIP3     797      TIP3     H2       HT       0.417000       1.00800           0
     19727 TIP3     798      TIP3     OH2      OT      -0.834000       15.9994           0
     19728 TIP3     798      TIP3     H1       HT       0.417000       1.00800           0
     19729 TIP3     798      TIP3     H2       HT       0.417000       1.00800           0
     19730 TIP3     799      TIP3     OH2      OT      -0.834000       15.9994           0
     19731 TIP3     799      TIP3     H1       HT       0.417000       1.00800           0
     19732 TIP3     799      TIP3     H2       HT       0.417000       1.00800           0
     19733 TIP3     800      TIP3     OH2      OT      -0.834000       15.9994           0
     19734 TIP3     800      TIP3     H1       HT       0.417000       1.00800           0
     19735 TIP3     800      TIP3     H2       HT       0.417000       1.00800           0
     19736 TIP3     801      TIP3     OH2      OT      -0.834000       15.9994           0
     19737 TIP3     801      TIP3     H1       HT       0.417000       1.00800           0
     19738 TIP3     801      TIP3     H2       HT       0.417000       1.00800           0
     19739 TIP3     802      TIP3     OH2      OT      -0.834000       15.9994           0
     19740 TIP3     802      TIP3     H1       HT       0.417000       1.00800           0
     19741 TIP3     802      TIP3     H2       HT       0.417000       1.00800           0
     19742 TIP3     803      TIP3     OH2      OT      -0.834000       15.9994           0
     19743 TIP3     803      TIP3     H1       HT       0.417000       1.00800           0
     19744 TIP3     803      TIP3     H2       HT       0.417000       1.00800           0
     19745 TIP3     804      TIP3     OH2      OT      -0.834000       15.9994           0
     19746 TIP3     804      TIP3     H1       HT       0.417000       1.00800           0
     19747 TIP3     804      TIP3     H2       HT       0.417000       1.00800           0
     19748 TIP3     805      TIP3     OH2      OT      -0.834000       15.9994           0
     19749 TIP3     805      TIP3     H1       HT       0.417000       1.00800           0
     19750 TIP3     805      TIP3     H2       HT       0.417000       1.00800           0
     19751 TIP3     806      TIP3     OH2      OT      -0.834000       15.9994           0
     19752 TIP3     806      TIP3     H1       HT       0.417000       1.00800           0
     19753 TIP3     806      TIP3     H2       HT       0.417000       1.00800           0
     19754 TIP3     807      TIP3     OH2      OT      -0.834000       15.9994           0
     19755 TIP3     807      TIP3     H1       HT       0.417000       1.00800           0
     19756 TIP3     807      TIP3     H2       HT       0.417000       1.00800           0
     19757 TIP3     808      TIP3     OH2      OT      -0.834000       15.9994           0
     19758 TIP3     808      TIP3     H1       HT       0.417000       1.00800           0
     19759 TIP3     808      TIP3     H2       HT       0.417000       1.00800           0
     19760 TIP3     809      TIP3     OH2      OT      -0.834000       15.9994           0
     19761 TIP3     809      TIP3     H1       HT       0.417000       1.00800           0
     19762 TIP3     809      TIP3     H2       HT       0.417000       1.00800           0
     19763 TIP3     810      TIP3     OH2      OT      -0.834000       15.9994           0
     19764 TIP3     810      TIP3     H1       HT       0.417000       1.00800           0
     19765 TIP3     810      TIP3     H2       HT       0.417000       1.00800           0
     19766 TIP3     811      TIP3     OH2      OT      -0.834000       15.9994           0
     19767 TIP3     811      TIP3     H1       HT       0.417000       1.00800           0
     19768 TIP3     811      TIP3     H2       HT       0.417000       1.00800           0
     19769 TIP3     812      TIP3     OH2      OT      -0.834000       15.9994           0
     19770 TIP3     812      TIP3     H1       HT       0.417000       1.00800           0
     19771 TIP3     812      TIP3     H2       HT       0.417000       1.00800           0
     19772 TIP3     813      TIP3     OH2      OT      -0.834000       15.9994           0
     19773 TIP3     813      TIP3     H1       HT       0.417000       1.00800           0
     19774 TIP3     813      TIP3     H2       HT       0.417000       1.00800           0
     19775 TIP3     814      TIP3     OH2      OT      -0.834000       15.9994           0
     19776 TIP3     814      TIP3     H1       HT       0.417000       1.00800           0
     19777 TIP3     814      TIP3     H2       HT       0.417000       1.00800           0
     19778 TIP3     815      TIP3     OH2      OT      -0.834000       15.9994           0
     19779 TIP3     815      TIP3     H1       HT       0.417000       1.00800           0
     19780 TIP3     815      TIP3     H2       HT       0.417000       1.00800           0
     19781 TIP3     816      TIP3     OH2      OT      -0.834000       15.9994           0
     19782 TIP3     816      TIP3     H1       HT       0.417000       1.00800           0
     19783 TIP3     816      TIP3     H2       HT       0.417000       1.00800           0
     19784 TIP3     817      TIP3     OH2      OT      -0.834000       15.9994           0
     19785 TIP3     817      TIP3     H1       HT       0.417000       1.00800           0
     19786 TIP3     817      TIP3     H2       HT       0.417000       1.00800           0
     19787 TIP3     818      TIP3     OH2      OT      -0.834000       15.9994           0
     19788 TIP3     818      TIP3     H1       HT       0.417000       1.00800           0
     19789 TIP3     818      TIP3     H2       HT       0.417000       1.00800           0
     19790 TIP3     819      TIP3     OH2      OT      -0.834000       15.9994           0
     19791 TIP3     819      TIP3     H1       HT       0.417000       1.00800           0
     19792 TIP3     819      TIP3     H2       HT       0.417000       1.00800           0
     19793 TIP3     820      TIP3     OH2      OT      -0.834000       15.9994           0
     19794 TIP3     820      TIP3     H1       HT       0.417000       1.00800           0
     19795 TIP3     820      TIP3     H2       HT       0.417000       1.00800           0
     19796 TIP3     821      TIP3     OH2      OT      -0.834000       15.9994           0
     19797 TIP3     821      TIP3     H1       HT       0.417000       1.00800           0
     19798 TIP3     821      TIP3     H2       HT       0.417000       1.00800           0
     19799 TIP3     822      TIP3     OH2      OT      -0.834000       15.9994           0
     19800 TIP3     822      TIP3     H1       HT       0.417000       1.00800           0
     19801 TIP3     822      TIP3     H2       HT       0.417000       1.00800           0
     19802 TIP3     823      TIP3     OH2      OT      -0.834000       15.9994           0
     19803 TIP3     823      TIP3     H1       HT       0.417000       1.00800           0
     19804 TIP3     823      TIP3     H2       HT       0.417000       1.00800           0
     19805 TIP3     824      TIP3     OH2      OT      -0.834000       15.9994           0
     19806 TIP3     824      TIP3     H1       HT       0.417000       1.00800           0
     19807 TIP3     824      TIP3     H2       HT       0.417000       1.00800           0
     19808 TIP3     825      TIP3     OH2      OT      -0.834000       15.9994           0
     19809 TIP3     825      TIP3     H1       HT       0.417000       1.00800           0
     19810 TIP3     825      TIP3     H2       HT       0.417000       1.00800           0
     19811 TIP3     826      TIP3     OH2      OT      -0.834000       15.9994           0
     19812 TIP3     826      TIP3     H1       HT       0.417000       1.00800           0
     19813 TIP3     826      TIP3     H2       HT       0.417000       1.00800           0
     19814 TIP3     827      TIP3     OH2      OT      -0.834000       15.9994           0
     19815 TIP3     827      TIP3     H1       HT       0.417000       1.00800           0
     19816 TIP3     827      TIP3     H2       HT       0.417000       1.00800           0
     19817 TIP3     828      TIP3     OH2      OT      -0.834000       15.9994           0
     19818 TIP3     828      TIP3     H1       HT       0.417000       1.00800           0
     19819 TIP3     828      TIP3     H2       HT       0.417000       1.00800           0
     19820 TIP3     829      TIP3     OH2      OT      -0.834000       15.9994           0
     19821 TIP3     829      TIP3     H1       HT       0.417000       1.00800           0
     19822 TIP3     829      TIP3     H2       HT       0.417000       1.00800           0
     19823 TIP3     830      TIP3     OH2      OT      -0.834000       15.9994           0
     19824 TIP3     830      TIP3     H1       HT       0.417000       1.00800           0
     19825 TIP3     830      TIP3     H2       HT       0.417000       1.00800           0
     19826 TIP3     831      TIP3     OH2      OT      -0.834000       15.9994           0
     19827 TIP3     831      TIP3     H1       HT       0.417000       1.00800           0
     19828 TIP3     831      TIP3     H2       HT       0.417000       1.00800           0
     19829 TIP3     832      TIP3     OH2      OT      -0.834000       15.9994           0
     19830 TIP3     832      TIP3     H1       HT       0.417000       1.00800           0
     19831 TIP3     832      TIP3     H2       HT       0.417000       1.00800           0
     19832 TIP3     833      TIP3     OH2      OT      -0.834000       15.9994           0
     19833 TIP3     833      TIP3     H1       HT       0.417000       1.00800           0
     19834 TIP3     833      TIP3     H2       HT       0.417000       1.00800           0
     19835 TIP3     834      TIP3     OH2      OT      -0.834000       15.9994           0
     19836 TIP3     834      TIP3     H1       HT       0.417000       1.00800           0
     19837 TIP3     834      TIP3     H2       HT       0.417000       1.00800           0
     19838 TIP3     835      TIP3     OH2      OT      -0.834000       15.9994           0
     19839 TIP3     835      TIP3     H1       HT       0.417000       1.00800           0
     19840 TIP3     835      TIP3     H2       HT       0.417000       1.00800           0
     19841 TIP3     836      TIP3     OH2      OT      -0.834000       15.9994           0
     19842 TIP3     836      TIP3     H1       HT       0.417000       1.00800           0
     19843 TIP3     836      TIP3     H2       HT       0.417000       1.00800           0
     19844 TIP3     837      TIP3     OH2      OT      -0.834000       15.9994           0
     19845 TIP3     837      TIP3     H1       HT       0.417000       1.00800           0
     19846 TIP3     837      TIP3     H2       HT       0.417000       1.00800           0
     19847 TIP3     838      TIP3     OH2      OT      -0.834000       15.9994           0
     19848 TIP3     838      TIP3     H1       HT       0.417000       1.00800           0
     19849 TIP3     838      TIP3     H2       HT       0.417000       1.00800           0
     19850 TIP3     839      TIP3     OH2      OT      -0.834000       15.9994           0
     19851 TIP3     839      TIP3     H1       HT       0.417000       1.00800           0
     19852 TIP3     839      TIP3     H2       HT       0.417000       1.00800           0
     19853 TIP3     840      TIP3     OH2      OT      -0.834000       15.9994           0
     19854 TIP3     840      TIP3     H1       HT       0.417000       1.00800           0
     19855 TIP3     840      TIP3     H2       HT       0.417000       1.00800           0
     19856 TIP3     841      TIP3     OH2      OT      -0.834000       15.9994           0
     19857 TIP3     841      TIP3     H1       HT       0.417000       1.00800           0
     19858 TIP3     841      TIP3     H2       HT       0.417000       1.00800           0
     19859 TIP3     842      TIP3     OH2      OT      -0.834000       15.9994           0
     19860 TIP3     842      TIP3     H1       HT       0.417000       1.00800           0
     19861 TIP3     842      TIP3     H2       HT       0.417000       1.00800           0
     19862 TIP3     843      TIP3     OH2      OT      -0.834000       15.9994           0
     19863 TIP3     843      TIP3     H1       HT       0.417000       1.00800           0
     19864 TIP3     843      TIP3     H2       HT       0.417000       1.00800           0
     19865 TIP3     844      TIP3     OH2      OT      -0.834000       15.9994           0
     19866 TIP3     844      TIP3     H1       HT       0.417000       1.00800           0
     19867 TIP3     844      TIP3     H2       HT       0.417000       1.00800           0
     19868 TIP3     845      TIP3     OH2      OT      -0.834000       15.9994           0
     19869 TIP3     845      TIP3     H1       HT       0.417000       1.00800           0
     19870 TIP3     845      TIP3     H2       HT       0.417000       1.00800           0
     19871 TIP3     846      TIP3     OH2      OT      -0.834000       15.9994           0
     19872 TIP3     846      TIP3     H1       HT       0.417000       1.00800           0
     19873 TIP3     846      TIP3     H2       HT       0.417000       1.00800           0
     19874 TIP3     847      TIP3     OH2      OT      -0.834000       15.9994           0
     19875 TIP3     847      TIP3     H1       HT       0.417000       1.00800           0
     19876 TIP3     847      TIP3     H2       HT       0.417000       1.00800           0
     19877 TIP3     848      TIP3     OH2      OT      -0.834000       15.9994           0
     19878 TIP3     848      TIP3     H1       HT       0.417000       1.00800           0
     19879 TIP3     848      TIP3     H2       HT       0.417000       1.00800           0
     19880 TIP3     849      TIP3     OH2      OT      -0.834000       15.9994           0
     19881 TIP3     849      TIP3     H1       HT       0.417000       1.00800           0
     19882 TIP3     849      TIP3     H2       HT       0.417000       1.00800           0
     19883 TIP3     850      TIP3     OH2      OT      -0.834000       15.9994           0
     19884 TIP3     850      TIP3     H1       HT       0.417000       1.00800           0
     19885 TIP3     850      TIP3     H2       HT       0.417000       1.00800           0
     19886 TIP3     851      TIP3     OH2      OT      -0.834000       15.9994           0
     19887 TIP3     851      TIP3     H1       HT       0.417000       1.00800           0
     19888 TIP3     851      TIP3     H2       HT       0.417000       1.00800           0
     19889 TIP3     852      TIP3     OH2      OT      -0.834000       15.9994           0
     19890 TIP3     852      TIP3     H1       HT       0.417000       1.00800           0
     19891 TIP3     852      TIP3     H2       HT       0.417000       1.00800           0
     19892 TIP3     853      TIP3     OH2      OT      -0.834000       15.9994           0
     19893 TIP3     853      TIP3     H1       HT       0.417000       1.00800           0
     19894 TIP3     853      TIP3     H2       HT       0.417000       1.00800           0
     19895 TIP3     854      TIP3     OH2      OT      -0.834000       15.9994           0
     19896 TIP3     854      TIP3     H1       HT       0.417000       1.00800           0
     19897 TIP3     854      TIP3     H2       HT       0.417000       1.00800           0
     19898 TIP3     855      TIP3     OH2      OT      -0.834000       15.9994           0
     19899 TIP3     855      TIP3     H1       HT       0.417000       1.00800           0
     19900 TIP3     855      TIP3     H2       HT       0.417000       1.00800           0
     19901 TIP3     856      TIP3     OH2      OT      -0.834000       15.9994           0
     19902 TIP3     856      TIP3     H1       HT       0.417000       1.00800           0
     19903 TIP3     856      TIP3     H2       HT       0.417000       1.00800           0
     19904 TIP3     857      TIP3     OH2      OT      -0.834000       15.9994           0
     19905 TIP3     857      TIP3     H1       HT       0.417000       1.00800           0
     19906 TIP3     857      TIP3     H2       HT       0.417000       1.00800           0
     19907 TIP3     858      TIP3     OH2      OT      -0.834000       15.9994           0
     19908 TIP3     858      TIP3     H1       HT       0.417000       1.00800           0
     19909 TIP3     858      TIP3     H2       HT       0.417000       1.00800           0
     19910 TIP3     859      TIP3     OH2      OT      -0.834000       15.9994           0
     19911 TIP3     859      TIP3     H1       HT       0.417000       1.00800           0
     19912 TIP3     859      TIP3     H2       HT       0.417000       1.00800           0
     19913 TIP3     860      TIP3     OH2      OT      -0.834000       15.9994           0
     19914 TIP3     860      TIP3     H1       HT       0.417000       1.00800           0
     19915 TIP3     860      TIP3     H2       HT       0.417000       1.00800           0
     19916 TIP3     861      TIP3     OH2      OT      -0.834000       15.9994           0
     19917 TIP3     861      TIP3     H1       HT       0.417000       1.00800           0
     19918 TIP3     861      TIP3     H2       HT       0.417000       1.00800           0
     19919 TIP3     862      TIP3     OH2      OT      -0.834000       15.9994           0
     19920 TIP3     862      TIP3     H1       HT       0.417000       1.00800           0
     19921 TIP3     862      TIP3     H2       HT       0.417000       1.00800           0
     19922 TIP3     863      TIP3     OH2      OT      -0.834000       15.9994           0
     19923 TIP3     863      TIP3     H1       HT       0.417000       1.00800           0
     19924 TIP3     863      TIP3     H2       HT       0.417000       1.00800           0
     19925 TIP3     864      TIP3     OH2      OT      -0.834000       15.9994           0
     19926 TIP3     864      TIP3     H1       HT       0.417000       1.00800           0
     19927 TIP3     864      TIP3     H2       HT       0.417000       1.00800           0
     19928 TIP3     865      TIP3     OH2      OT      -0.834000       15.9994           0
     19929 TIP3     865      TIP3     H1       HT       0.417000       1.00800           0
     19930 TIP3     865      TIP3     H2       HT       0.417000       1.00800           0
     19931 TIP3     866      TIP3     OH2      OT      -0.834000       15.9994           0
     19932 TIP3     866      TIP3     H1       HT       0.417000       1.00800           0
     19933 TIP3     866      TIP3     H2       HT       0.417000       1.00800           0
     19934 TIP3     867      TIP3     OH2      OT      -0.834000       15.9994           0
     19935 TIP3     867      TIP3     H1       HT       0.417000       1.00800           0
     19936 TIP3     867      TIP3     H2       HT       0.417000       1.00800           0
     19937 TIP3     868      TIP3     OH2      OT      -0.834000       15.9994           0
     19938 TIP3     868      TIP3     H1       HT       0.417000       1.00800           0
     19939 TIP3     868      TIP3     H2       HT       0.417000       1.00800           0
     19940 TIP3     869      TIP3     OH2      OT      -0.834000       15.9994           0
     19941 TIP3     869      TIP3     H1       HT       0.417000       1.00800           0
     19942 TIP3     869      TIP3     H2       HT       0.417000       1.00800           0
     19943 TIP3     870      TIP3     OH2      OT      -0.834000       15.9994           0
     19944 TIP3     870      TIP3     H1       HT       0.417000       1.00800           0
     19945 TIP3     870      TIP3     H2       HT       0.417000       1.00800           0
     19946 TIP3     871      TIP3     OH2      OT      -0.834000       15.9994           0
     19947 TIP3     871      TIP3     H1       HT       0.417000       1.00800           0
     19948 TIP3     871      TIP3     H2       HT       0.417000       1.00800           0
     19949 TIP3     872      TIP3     OH2      OT      -0.834000       15.9994           0
     19950 TIP3     872      TIP3     H1       HT       0.417000       1.00800           0
     19951 TIP3     872      TIP3     H2       HT       0.417000       1.00800           0
     19952 TIP3     873      TIP3     OH2      OT      -0.834000       15.9994           0
     19953 TIP3     873      TIP3     H1       HT       0.417000       1.00800           0
     19954 TIP3     873      TIP3     H2       HT       0.417000       1.00800           0
     19955 TIP3     874      TIP3     OH2      OT      -0.834000       15.9994           0
     19956 TIP3     874      TIP3     H1       HT       0.417000       1.00800           0
     19957 TIP3     874      TIP3     H2       HT       0.417000       1.00800           0
     19958 TIP3     875      TIP3     OH2      OT      -0.834000       15.9994           0
     19959 TIP3     875      TIP3     H1       HT       0.417000       1.00800           0
     19960 TIP3     875      TIP3     H2       HT       0.417000       1.00800           0
     19961 TIP3     876      TIP3     OH2      OT      -0.834000       15.9994           0
     19962 TIP3     876      TIP3     H1       HT       0.417000       1.00800           0
     19963 TIP3     876      TIP3     H2       HT       0.417000       1.00800           0
     19964 TIP3     877      TIP3     OH2      OT      -0.834000       15.9994           0
     19965 TIP3     877      TIP3     H1       HT       0.417000       1.00800           0
     19966 TIP3     877      TIP3     H2       HT       0.417000       1.00800           0
     19967 TIP3     878      TIP3     OH2      OT      -0.834000       15.9994           0
     19968 TIP3     878      TIP3     H1       HT       0.417000       1.00800           0
     19969 TIP3     878      TIP3     H2       HT       0.417000       1.00800           0
     19970 TIP3     879      TIP3     OH2      OT      -0.834000       15.9994           0
     19971 TIP3     879      TIP3     H1       HT       0.417000       1.00800           0
     19972 TIP3     879      TIP3     H2       HT       0.417000       1.00800           0
     19973 TIP3     880      TIP3     OH2      OT      -0.834000       15.9994           0
     19974 TIP3     880      TIP3     H1       HT       0.417000       1.00800           0
     19975 TIP3     880      TIP3     H2       HT       0.417000       1.00800           0
     19976 TIP3     881      TIP3     OH2      OT      -0.834000       15.9994           0
     19977 TIP3     881      TIP3     H1       HT       0.417000       1.00800           0
     19978 TIP3     881      TIP3     H2       HT       0.417000       1.00800           0
     19979 TIP3     882      TIP3     OH2      OT      -0.834000       15.9994           0
     19980 TIP3     882      TIP3     H1       HT       0.417000       1.00800           0
     19981 TIP3     882      TIP3     H2       HT       0.417000       1.00800           0
     19982 TIP3     883      TIP3     OH2      OT      -0.834000       15.9994           0
     19983 TIP3     883      TIP3     H1       HT       0.417000       1.00800           0
     19984 TIP3     883      TIP3     H2       HT       0.417000       1.00800           0
     19985 TIP3     884      TIP3     OH2      OT      -0.834000       15.9994           0
     19986 TIP3     884      TIP3     H1       HT       0.417000       1.00800           0
     19987 TIP3     884      TIP3     H2       HT       0.417000       1.00800           0
     19988 TIP3     885      TIP3     OH2      OT      -0.834000       15.9994           0
     19989 TIP3     885      TIP3     H1       HT       0.417000       1.00800           0
     19990 TIP3     885      TIP3     H2       HT       0.417000       1.00800           0
     19991 TIP3     886      TIP3     OH2      OT      -0.834000       15.9994           0
     19992 TIP3     886      TIP3     H1       HT       0.417000       1.00800           0
     19993 TIP3     886      TIP3     H2       HT       0.417000       1.00800           0
     19994 TIP3     887      TIP3     OH2      OT      -0.834000       15.9994           0
     19995 TIP3     887      TIP3     H1       HT       0.417000       1.00800           0
     19996 TIP3     887      TIP3     H2       HT       0.417000       1.00800           0
     19997 TIP3     888      TIP3     OH2      OT      -0.834000       15.9994           0
     19998 TIP3     888      TIP3     H1       HT       0.417000       1.00800           0
     19999 TIP3     888      TIP3     H2       HT       0.417000       1.00800           0
     20000 TIP3     889      TIP3     OH2      OT      -0.834000       15.9994           0
     20001 TIP3     889      TIP3     H1       HT       0.417000       1.00800           0
     20002 TIP3     889      TIP3     H2       HT       0.417000       1.00800           0
     20003 TIP3     890      TIP3     OH2      OT      -0.834000       15.9994           0
     20004 TIP3     890      TIP3     H1       HT       0.417000       1.00800           0
     20005 TIP3     890      TIP3     H2       HT       0.417000       1.00800           0
     20006 TIP3     891      TIP3     OH2      OT      -0.834000       15.9994           0
     20007 TIP3     891      TIP3     H1       HT       0.417000       1.00800           0
     20008 TIP3     891      TIP3     H2       HT       0.417000       1.00800           0
     20009 TIP3     892      TIP3     OH2      OT      -0.834000       15.9994           0
     20010 TIP3     892      TIP3     H1       HT       0.417000       1.00800           0
     20011 TIP3     892      TIP3     H2       HT       0.417000       1.00800           0
     20012 TIP3     893      TIP3     OH2      OT      -0.834000       15.9994           0
     20013 TIP3     893      TIP3     H1       HT       0.417000       1.00800           0
     20014 TIP3     893      TIP3     H2       HT       0.417000       1.00800           0
     20015 TIP3     894      TIP3     OH2      OT      -0.834000       15.9994           0
     20016 TIP3     894      TIP3     H1       HT       0.417000       1.00800           0
     20017 TIP3     894      TIP3     H2       HT       0.417000       1.00800           0
     20018 TIP3     895      TIP3     OH2      OT      -0.834000       15.9994           0
     20019 TIP3     895      TIP3     H1       HT       0.417000       1.00800           0
     20020 TIP3     895      TIP3     H2       HT       0.417000       1.00800           0
     20021 TIP3     896      TIP3     OH2      OT      -0.834000       15.9994           0
     20022 TIP3     896      TIP3     H1       HT       0.417000       1.00800           0
     20023 TIP3     896      TIP3     H2       HT       0.417000       1.00800           0
     20024 TIP3     897      TIP3     OH2      OT      -0.834000       15.9994           0
     20025 TIP3     897      TIP3     H1       HT       0.417000       1.00800           0
     20026 TIP3     897      TIP3     H2       HT       0.417000       1.00800           0
     20027 TIP3     898      TIP3     OH2      OT      -0.834000       15.9994           0
     20028 TIP3     898      TIP3     H1       HT       0.417000       1.00800           0
     20029 TIP3     898      TIP3     H2       HT       0.417000       1.00800           0
     20030 TIP3     899      TIP3     OH2      OT      -0.834000       15.9994           0
     20031 TIP3     899      TIP3     H1       HT       0.417000       1.00800           0
     20032 TIP3     899      TIP3     H2       HT       0.417000       1.00800           0
     20033 TIP3     900      TIP3     OH2      OT      -0.834000       15.9994           0
     20034 TIP3     900      TIP3     H1       HT       0.417000       1.00800           0
     20035 TIP3     900      TIP3     H2       HT       0.417000       1.00800           0
     20036 TIP3     901      TIP3     OH2      OT      -0.834000       15.9994           0
     20037 TIP3     901      TIP3     H1       HT       0.417000       1.00800           0
     20038 TIP3     901      TIP3     H2       HT       0.417000       1.00800           0
     20039 TIP3     902      TIP3     OH2      OT      -0.834000       15.9994           0
     20040 TIP3     902      TIP3     H1       HT       0.417000       1.00800           0
     20041 TIP3     902      TIP3     H2       HT       0.417000       1.00800           0
     20042 TIP3     903      TIP3     OH2      OT      -0.834000       15.9994           0
     20043 TIP3     903      TIP3     H1       HT       0.417000       1.00800           0
     20044 TIP3     903      TIP3     H2       HT       0.417000       1.00800           0
     20045 TIP3     904      TIP3     OH2      OT      -0.834000       15.9994           0
     20046 TIP3     904      TIP3     H1       HT       0.417000       1.00800           0
     20047 TIP3     904      TIP3     H2       HT       0.417000       1.00800           0
     20048 TIP3     905      TIP3     OH2      OT      -0.834000       15.9994           0
     20049 TIP3     905      TIP3     H1       HT       0.417000       1.00800           0
     20050 TIP3     905      TIP3     H2       HT       0.417000       1.00800           0
     20051 TIP3     906      TIP3     OH2      OT      -0.834000       15.9994           0
     20052 TIP3     906      TIP3     H1       HT       0.417000       1.00800           0
     20053 TIP3     906      TIP3     H2       HT       0.417000       1.00800           0
     20054 TIP3     907      TIP3     OH2      OT      -0.834000       15.9994           0
     20055 TIP3     907      TIP3     H1       HT       0.417000       1.00800           0
     20056 TIP3     907      TIP3     H2       HT       0.417000       1.00800           0
     20057 TIP3     908      TIP3     OH2      OT      -0.834000       15.9994           0
     20058 TIP3     908      TIP3     H1       HT       0.417000       1.00800           0
     20059 TIP3     908      TIP3     H2       HT       0.417000       1.00800           0
     20060 TIP3     909      TIP3     OH2      OT      -0.834000       15.9994           0
     20061 TIP3     909      TIP3     H1       HT       0.417000       1.00800           0
     20062 TIP3     909      TIP3     H2       HT       0.417000       1.00800           0
     20063 TIP3     910      TIP3     OH2      OT      -0.834000       15.9994           0
     20064 TIP3     910      TIP3     H1       HT       0.417000       1.00800           0
     20065 TIP3     910      TIP3     H2       HT       0.417000       1.00800           0
     20066 TIP3     911      TIP3     OH2      OT      -0.834000       15.9994           0
     20067 TIP3     911      TIP3     H1       HT       0.417000       1.00800           0
     20068 TIP3     911      TIP3     H2       HT       0.417000       1.00800           0
     20069 TIP3     912      TIP3     OH2      OT      -0.834000       15.9994           0
     20070 TIP3     912      TIP3     H1       HT       0.417000       1.00800           0
     20071 TIP3     912      TIP3     H2       HT       0.417000       1.00800           0
     20072 TIP3     913      TIP3     OH2      OT      -0.834000       15.9994           0
     20073 TIP3     913      TIP3     H1       HT       0.417000       1.00800           0
     20074 TIP3     913      TIP3     H2       HT       0.417000       1.00800           0
     20075 TIP3     914      TIP3     OH2      OT      -0.834000       15.9994           0
     20076 TIP3     914      TIP3     H1       HT       0.417000       1.00800           0
     20077 TIP3     914      TIP3     H2       HT       0.417000       1.00800           0
     20078 TIP3     915      TIP3     OH2      OT      -0.834000       15.9994           0
     20079 TIP3     915      TIP3     H1       HT       0.417000       1.00800           0
     20080 TIP3     915      TIP3     H2       HT       0.417000       1.00800           0
     20081 TIP3     916      TIP3     OH2      OT      -0.834000       15.9994           0
     20082 TIP3     916      TIP3     H1       HT       0.417000       1.00800           0
     20083 TIP3     916      TIP3     H2       HT       0.417000       1.00800           0
     20084 TIP3     917      TIP3     OH2      OT      -0.834000       15.9994           0
     20085 TIP3     917      TIP3     H1       HT       0.417000       1.00800           0
     20086 TIP3     917      TIP3     H2       HT       0.417000       1.00800           0
     20087 TIP3     918      TIP3     OH2      OT      -0.834000       15.9994           0
     20088 TIP3     918      TIP3     H1       HT       0.417000       1.00800           0
     20089 TIP3     918      TIP3     H2       HT       0.417000       1.00800           0
     20090 TIP3     919      TIP3     OH2      OT      -0.834000       15.9994           0
     20091 TIP3     919      TIP3     H1       HT       0.417000       1.00800           0
     20092 TIP3     919      TIP3     H2       HT       0.417000       1.00800           0
     20093 TIP3     920      TIP3     OH2      OT      -0.834000       15.9994           0
     20094 TIP3     920      TIP3     H1       HT       0.417000       1.00800           0
     20095 TIP3     920      TIP3     H2       HT       0.417000       1.00800           0
     20096 TIP3     921      TIP3     OH2      OT      -0.834000       15.9994           0
     20097 TIP3     921      TIP3     H1       HT       0.417000       1.00800           0
     20098 TIP3     921      TIP3     H2       HT       0.417000       1.00800           0
     20099 TIP3     922      TIP3     OH2      OT      -0.834000       15.9994           0
     20100 TIP3     922      TIP3     H1       HT       0.417000       1.00800           0
     20101 TIP3     922      TIP3     H2       HT       0.417000       1.00800           0
     20102 TIP3     923      TIP3     OH2      OT      -0.834000       15.9994           0
     20103 TIP3     923      TIP3     H1       HT       0.417000       1.00800           0
     20104 TIP3     923      TIP3     H2       HT       0.417000       1.00800           0
     20105 TIP3     924      TIP3     OH2      OT      -0.834000       15.9994           0
     20106 TIP3     924      TIP3     H1       HT       0.417000       1.00800           0
     20107 TIP3     924      TIP3     H2       HT       0.417000       1.00800           0
     20108 TIP3     925      TIP3     OH2      OT      -0.834000       15.9994           0
     20109 TIP3     925      TIP3     H1       HT       0.417000       1.00800           0
     20110 TIP3     925      TIP3     H2       HT       0.417000       1.00800           0
     20111 TIP3     926      TIP3     OH2      OT      -0.834000       15.9994           0
     20112 TIP3     926      TIP3     H1       HT       0.417000       1.00800           0
     20113 TIP3     926      TIP3     H2       HT       0.417000       1.00800           0
     20114 TIP3     927      TIP3     OH2      OT      -0.834000       15.9994           0
     20115 TIP3     927      TIP3     H1       HT       0.417000       1.00800           0
     20116 TIP3     927      TIP3     H2       HT       0.417000       1.00800           0
     20117 TIP3     928      TIP3     OH2      OT      -0.834000       15.9994           0
     20118 TIP3     928      TIP3     H1       HT       0.417000       1.00800           0
     20119 TIP3     928      TIP3     H2       HT       0.417000       1.00800           0
     20120 TIP3     929      TIP3     OH2      OT      -0.834000       15.9994           0
     20121 TIP3     929      TIP3     H1       HT       0.417000       1.00800           0
     20122 TIP3     929      TIP3     H2       HT       0.417000       1.00800           0
     20123 TIP3     930      TIP3     OH2      OT      -0.834000       15.9994           0
     20124 TIP3     930      TIP3     H1       HT       0.417000       1.00800           0
     20125 TIP3     930      TIP3     H2       HT       0.417000       1.00800           0
     20126 TIP3     931      TIP3     OH2      OT      -0.834000       15.9994           0
     20127 TIP3     931      TIP3     H1       HT       0.417000       1.00800           0
     20128 TIP3     931      TIP3     H2       HT       0.417000       1.00800           0
     20129 TIP3     932      TIP3     OH2      OT      -0.834000       15.9994           0
     20130 TIP3     932      TIP3     H1       HT       0.417000       1.00800           0
     20131 TIP3     932      TIP3     H2       HT       0.417000       1.00800           0
     20132 TIP3     933      TIP3     OH2      OT      -0.834000       15.9994           0
     20133 TIP3     933      TIP3     H1       HT       0.417000       1.00800           0
     20134 TIP3     933      TIP3     H2       HT       0.417000       1.00800           0
     20135 TIP3     934      TIP3     OH2      OT      -0.834000       15.9994           0
     20136 TIP3     934      TIP3     H1       HT       0.417000       1.00800           0
     20137 TIP3     934      TIP3     H2       HT       0.417000       1.00800           0
     20138 TIP3     935      TIP3     OH2      OT      -0.834000       15.9994           0
     20139 TIP3     935      TIP3     H1       HT       0.417000       1.00800           0
     20140 TIP3     935      TIP3     H2       HT       0.417000       1.00800           0
     20141 TIP3     936      TIP3     OH2      OT      -0.834000       15.9994           0
     20142 TIP3     936      TIP3     H1       HT       0.417000       1.00800           0
     20143 TIP3     936      TIP3     H2       HT       0.417000       1.00800           0
     20144 TIP3     937      TIP3     OH2      OT      -0.834000       15.9994           0
     20145 TIP3     937      TIP3     H1       HT       0.417000       1.00800           0
     20146 TIP3     937      TIP3     H2       HT       0.417000       1.00800           0
     20147 TIP3     938      TIP3     OH2      OT      -0.834000       15.9994           0
     20148 TIP3     938      TIP3     H1       HT       0.417000       1.00800           0
     20149 TIP3     938      TIP3     H2       HT       0.417000       1.00800           0
     20150 TIP3     939      TIP3     OH2      OT      -0.834000       15.9994           0
     20151 TIP3     939      TIP3     H1       HT       0.417000       1.00800           0
     20152 TIP3     939      TIP3     H2       HT       0.417000       1.00800           0
     20153 TIP3     940      TIP3     OH2      OT      -0.834000       15.9994           0
     20154 TIP3     940      TIP3     H1       HT       0.417000       1.00800           0
     20155 TIP3     940      TIP3     H2       HT       0.417000       1.00800           0
     20156 TIP3     941      TIP3     OH2      OT      -0.834000       15.9994           0
     20157 TIP3     941      TIP3     H1       HT       0.417000       1.00800           0
     20158 TIP3     941      TIP3     H2       HT       0.417000       1.00800           0
     20159 TIP3     942      TIP3     OH2      OT      -0.834000       15.9994           0
     20160 TIP3     942      TIP3     H1       HT       0.417000       1.00800           0
     20161 TIP3     942      TIP3     H2       HT       0.417000       1.00800           0
     20162 TIP3     943      TIP3     OH2      OT      -0.834000       15.9994           0
     20163 TIP3     943      TIP3     H1       HT       0.417000       1.00800           0
     20164 TIP3     943      TIP3     H2       HT       0.417000       1.00800           0
     20165 TIP3     944      TIP3     OH2      OT      -0.834000       15.9994           0
     20166 TIP3     944      TIP3     H1       HT       0.417000       1.00800           0
     20167 TIP3     944      TIP3     H2       HT       0.417000       1.00800           0
     20168 TIP3     945      TIP3     OH2      OT      -0.834000       15.9994           0
     20169 TIP3     945      TIP3     H1       HT       0.417000       1.00800           0
     20170 TIP3     945      TIP3     H2       HT       0.417000       1.00800           0
     20171 TIP3     946      TIP3     OH2      OT      -0.834000       15.9994           0
     20172 TIP3     946      TIP3     H1       HT       0.417000       1.00800           0
     20173 TIP3     946      TIP3     H2       HT       0.417000       1.00800           0
     20174 TIP3     947      TIP3     OH2      OT      -0.834000       15.9994           0
     20175 TIP3     947      TIP3     H1       HT       0.417000       1.00800           0
     20176 TIP3     947      TIP3     H2       HT       0.417000       1.00800           0
     20177 TIP3     948      TIP3     OH2      OT      -0.834000       15.9994           0
     20178 TIP3     948      TIP3     H1       HT       0.417000       1.00800           0
     20179 TIP3     948      TIP3     H2       HT       0.417000       1.00800           0
     20180 TIP3     949      TIP3     OH2      OT      -0.834000       15.9994           0
     20181 TIP3     949      TIP3     H1       HT       0.417000       1.00800           0
     20182 TIP3     949      TIP3     H2       HT       0.417000       1.00800           0
     20183 TIP3     950      TIP3     OH2      OT      -0.834000       15.9994           0
     20184 TIP3     950      TIP3     H1       HT       0.417000       1.00800           0
     20185 TIP3     950      TIP3     H2       HT       0.417000       1.00800           0
     20186 TIP3     951      TIP3     OH2      OT      -0.834000       15.9994           0
     20187 TIP3     951      TIP3     H1       HT       0.417000       1.00800           0
     20188 TIP3     951      TIP3     H2       HT       0.417000       1.00800           0
     20189 TIP3     952      TIP3     OH2      OT      -0.834000       15.9994           0
     20190 TIP3     952      TIP3     H1       HT       0.417000       1.00800           0
     20191 TIP3     952      TIP3     H2       HT       0.417000       1.00800           0
     20192 TIP3     953      TIP3     OH2      OT      -0.834000       15.9994           0
     20193 TIP3     953      TIP3     H1       HT       0.417000       1.00800           0
     20194 TIP3     953      TIP3     H2       HT       0.417000       1.00800           0
     20195 TIP3     954      TIP3     OH2      OT      -0.834000       15.9994           0
     20196 TIP3     954      TIP3     H1       HT       0.417000       1.00800           0
     20197 TIP3     954      TIP3     H2       HT       0.417000       1.00800           0
     20198 TIP3     955      TIP3     OH2      OT      -0.834000       15.9994           0
     20199 TIP3     955      TIP3     H1       HT       0.417000       1.00800           0
     20200 TIP3     955      TIP3     H2       HT       0.417000       1.00800           0
     20201 TIP3     956      TIP3     OH2      OT      -0.834000       15.9994           0
     20202 TIP3     956      TIP3     H1       HT       0.417000       1.00800           0
     20203 TIP3     956      TIP3     H2       HT       0.417000       1.00800           0
     20204 TIP3     957      TIP3     OH2      OT      -0.834000       15.9994           0
     20205 TIP3     957      TIP3     H1       HT       0.417000       1.00800           0
     20206 TIP3     957      TIP3     H2       HT       0.417000       1.00800           0
     20207 TIP3     958      TIP3     OH2      OT      -0.834000       15.9994           0
     20208 TIP3     958      TIP3     H1       HT       0.417000       1.00800           0
     20209 TIP3     958      TIP3     H2       HT       0.417000       1.00800           0
     20210 TIP3     959      TIP3     OH2      OT      -0.834000       15.9994           0
     20211 TIP3     959      TIP3     H1       HT       0.417000       1.00800           0
     20212 TIP3     959      TIP3     H2       HT       0.417000       1.00800           0
     20213 TIP3     960      TIP3     OH2      OT      -0.834000       15.9994           0
     20214 TIP3     960      TIP3     H1       HT       0.417000       1.00800           0
     20215 TIP3     960      TIP3     H2       HT       0.417000       1.00800           0
     20216 TIP3     961      TIP3     OH2      OT      -0.834000       15.9994           0
     20217 TIP3     961      TIP3     H1       HT       0.417000       1.00800           0
     20218 TIP3     961      TIP3     H2       HT       0.417000       1.00800           0
     20219 TIP3     962      TIP3     OH2      OT      -0.834000       15.9994           0
     20220 TIP3     962      TIP3     H1       HT       0.417000       1.00800           0
     20221 TIP3     962      TIP3     H2       HT       0.417000       1.00800           0
     20222 TIP3     963      TIP3     OH2      OT      -0.834000       15.9994           0
     20223 TIP3     963      TIP3     H1       HT       0.417000       1.00800           0
     20224 TIP3     963      TIP3     H2       HT       0.417000       1.00800           0
     20225 TIP3     964      TIP3     OH2      OT      -0.834000       15.9994           0
     20226 TIP3     964      TIP3     H1       HT       0.417000       1.00800           0
     20227 TIP3     964      TIP3     H2       HT       0.417000       1.00800           0
     20228 TIP3     965      TIP3     OH2      OT      -0.834000       15.9994           0
     20229 TIP3     965      TIP3     H1       HT       0.417000       1.00800           0
     20230 TIP3     965      TIP3     H2       HT       0.417000       1.00800           0
     20231 TIP3     966      TIP3     OH2      OT      -0.834000       15.9994           0
     20232 TIP3     966      TIP3     H1       HT       0.417000       1.00800           0
     20233 TIP3     966      TIP3     H2       HT       0.417000       1.00800           0
     20234 TIP3     967      TIP3     OH2      OT      -0.834000       15.9994           0
     20235 TIP3     967      TIP3     H1       HT       0.417000       1.00800           0
     20236 TIP3     967      TIP3     H2       HT       0.417000       1.00800           0
     20237 TIP3     968      TIP3     OH2      OT      -0.834000       15.9994           0
     20238 TIP3     968      TIP3     H1       HT       0.417000       1.00800           0
     20239 TIP3     968      TIP3     H2       HT       0.417000       1.00800           0
     20240 TIP3     969      TIP3     OH2      OT      -0.834000       15.9994           0
     20241 TIP3     969      TIP3     H1       HT       0.417000       1.00800           0
     20242 TIP3     969      TIP3     H2       HT       0.417000       1.00800           0
     20243 TIP3     970      TIP3     OH2      OT      -0.834000       15.9994           0
     20244 TIP3     970      TIP3     H1       HT       0.417000       1.00800           0
     20245 TIP3     970      TIP3     H2       HT       0.417000       1.00800           0
     20246 TIP3     971      TIP3     OH2      OT      -0.834000       15.9994           0
     20247 TIP3     971      TIP3     H1       HT       0.417000       1.00800           0
     20248 TIP3     971      TIP3     H2       HT       0.417000       1.00800           0
     20249 TIP3     972      TIP3     OH2      OT      -0.834000       15.9994           0
     20250 TIP3     972      TIP3     H1       HT       0.417000       1.00800           0
     20251 TIP3     972      TIP3     H2       HT       0.417000       1.00800           0
     20252 TIP3     973      TIP3     OH2      OT      -0.834000       15.9994           0
     20253 TIP3     973      TIP3     H1       HT       0.417000       1.00800           0
     20254 TIP3     973      TIP3     H2       HT       0.417000       1.00800           0
     20255 TIP3     974      TIP3     OH2      OT      -0.834000       15.9994           0
     20256 TIP3     974      TIP3     H1       HT       0.417000       1.00800           0
     20257 TIP3     974      TIP3     H2       HT       0.417000       1.00800           0
     20258 TIP3     975      TIP3     OH2      OT      -0.834000       15.9994           0
     20259 TIP3     975      TIP3     H1       HT       0.417000       1.00800           0
     20260 TIP3     975      TIP3     H2       HT       0.417000       1.00800           0
     20261 TIP3     976      TIP3     OH2      OT      -0.834000       15.9994           0
     20262 TIP3     976      TIP3     H1       HT       0.417000       1.00800           0
     20263 TIP3     976      TIP3     H2       HT       0.417000       1.00800           0
     20264 TIP3     977      TIP3     OH2      OT      -0.834000       15.9994           0
     20265 TIP3     977      TIP3     H1       HT       0.417000       1.00800           0
     20266 TIP3     977      TIP3     H2       HT       0.417000       1.00800           0
     20267 TIP3     978      TIP3     OH2      OT      -0.834000       15.9994           0
     20268 TIP3     978      TIP3     H1       HT       0.417000       1.00800           0
     20269 TIP3     978      TIP3     H2       HT       0.417000       1.00800           0
     20270 TIP3     979      TIP3     OH2      OT      -0.834000       15.9994           0
     20271 TIP3     979      TIP3     H1       HT       0.417000       1.00800           0
     20272 TIP3     979      TIP3     H2       HT       0.417000       1.00800           0
     20273 TIP3     980      TIP3     OH2      OT      -0.834000       15.9994           0
     20274 TIP3     980      TIP3     H1       HT       0.417000       1.00800           0
     20275 TIP3     980      TIP3     H2       HT       0.417000       1.00800           0
     20276 TIP3     981      TIP3     OH2      OT      -0.834000       15.9994           0
     20277 TIP3     981      TIP3     H1       HT       0.417000       1.00800           0
     20278 TIP3     981      TIP3     H2       HT       0.417000       1.00800           0
     20279 TIP3     982      TIP3     OH2      OT      -0.834000       15.9994           0
     20280 TIP3     982      TIP3     H1       HT       0.417000       1.00800           0
     20281 TIP3     982      TIP3     H2       HT       0.417000       1.00800           0
     20282 TIP3     983      TIP3     OH2      OT      -0.834000       15.9994           0
     20283 TIP3     983      TIP3     H1       HT       0.417000       1.00800           0
     20284 TIP3     983      TIP3     H2       HT       0.417000       1.00800           0
     20285 TIP3     984      TIP3     OH2      OT      -0.834000       15.9994           0
     20286 TIP3     984      TIP3     H1       HT       0.417000       1.00800           0
     20287 TIP3     984      TIP3     H2       HT       0.417000       1.00800           0
     20288 TIP3     985      TIP3     OH2      OT      -0.834000       15.9994           0
     20289 TIP3     985      TIP3     H1       HT       0.417000       1.00800           0
     20290 TIP3     985      TIP3     H2       HT       0.417000       1.00800           0
     20291 TIP3     986      TIP3     OH2      OT      -0.834000       15.9994           0
     20292 TIP3     986      TIP3     H1       HT       0.417000       1.00800           0
     20293 TIP3     986      TIP3     H2       HT       0.417000       1.00800           0
     20294 TIP3     987      TIP3     OH2      OT      -0.834000       15.9994           0
     20295 TIP3     987      TIP3     H1       HT       0.417000       1.00800           0
     20296 TIP3     987      TIP3     H2       HT       0.417000       1.00800           0
     20297 TIP3     988      TIP3     OH2      OT      -0.834000       15.9994           0
     20298 TIP3     988      TIP3     H1       HT       0.417000       1.00800           0
     20299 TIP3     988      TIP3     H2       HT       0.417000       1.00800           0
     20300 TIP3     989      TIP3     OH2      OT      -0.834000       15.9994           0
     20301 TIP3     989      TIP3     H1       HT       0.417000       1.00800           0
     20302 TIP3     989      TIP3     H2       HT       0.417000       1.00800           0
     20303 TIP3     990      TIP3     OH2      OT      -0.834000       15.9994           0
     20304 TIP3     990      TIP3     H1       HT       0.417000       1.00800           0
     20305 TIP3     990      TIP3     H2       HT       0.417000       1.00800           0
     20306 TIP3     991      TIP3     OH2      OT      -0.834000       15.9994           0
     20307 TIP3     991      TIP3     H1       HT       0.417000       1.00800           0
     20308 TIP3     991      TIP3     H2       HT       0.417000       1.00800           0
     20309 TIP3     992      TIP3     OH2      OT      -0.834000       15.9994           0
     20310 TIP3     992      TIP3     H1       HT       0.417000       1.00800           0
     20311 TIP3     992      TIP3     H2       HT       0.417000       1.00800           0
     20312 TIP3     993      TIP3     OH2      OT      -0.834000       15.9994           0
     20313 TIP3     993      TIP3     H1       HT       0.417000       1.00800           0
     20314 TIP3     993      TIP3     H2       HT       0.417000       1.00800           0
     20315 TIP3     994      TIP3     OH2      OT      -0.834000       15.9994           0
     20316 TIP3     994      TIP3     H1       HT       0.417000       1.00800           0
     20317 TIP3     994      TIP3     H2       HT       0.417000       1.00800           0
     20318 TIP3     995      TIP3     OH2      OT      -0.834000       15.9994           0
     20319 TIP3     995      TIP3     H1       HT       0.417000       1.00800           0
     20320 TIP3     995      TIP3     H2       HT       0.417000       1.00800           0
     20321 TIP3     996      TIP3     OH2      OT      -0.834000       15.9994           0
     20322 TIP3     996      TIP3     H1       HT       0.417000       1.00800           0
     20323 TIP3     996      TIP3     H2       HT       0.417000       1.00800           0
     20324 TIP3     997      TIP3     OH2      OT      -0.834000       15.9994           0
     20325 TIP3     997      TIP3     H1       HT       0.417000       1.00800           0
     20326 TIP3     997      TIP3     H2       HT       0.417000       1.00800           0
     20327 TIP3     998      TIP3     OH2      OT      -0.834000       15.9994           0
     20328 TIP3     998      TIP3     H1       HT       0.417000       1.00800           0
     20329 TIP3     998      TIP3     H2       HT       0.417000       1.00800           0
     20330 TIP3     999      TIP3     OH2      OT      -0.834000       15.9994           0
     20331 TIP3     999      TIP3     H1       HT       0.417000       1.00800           0
     20332 TIP3     999      TIP3     H2       HT       0.417000       1.00800           0
     20333 TIP3     1000     TIP3     OH2      OT      -0.834000       15.9994           0
     20334 TIP3     1000     TIP3     H1       HT       0.417000       1.00800           0
     20335 TIP3     1000     TIP3     H2       HT       0.417000       1.00800           0
     20336 TIP3     1001     TIP3     OH2      OT      -0.834000       15.9994           0
     20337 TIP3     1001     TIP3     H1       HT       0.417000       1.00800           0
     20338 TIP3     1001     TIP3     H2       HT       0.417000       1.00800           0
     20339 TIP3     1002     TIP3     OH2      OT      -0.834000       15.9994           0
     20340 TIP3     1002     TIP3     H1       HT       0.417000       1.00800           0
     20341 TIP3     1002     TIP3     H2       HT       0.417000       1.00800           0
     20342 TIP3     1003     TIP3     OH2      OT      -0.834000       15.9994           0
     20343 TIP3     1003     TIP3     H1       HT       0.417000       1.00800           0
     20344 TIP3     1003     TIP3     H2       HT       0.417000       1.00800           0
     20345 TIP3     1004     TIP3     OH2      OT      -0.834000       15.9994           0
     20346 TIP3     1004     TIP3     H1       HT       0.417000       1.00800           0
     20347 TIP3     1004     TIP3     H2       HT       0.417000       1.00800           0
     20348 TIP3     1005     TIP3     OH2      OT      -0.834000       15.9994           0
     20349 TIP3     1005     TIP3     H1       HT       0.417000       1.00800           0
     20350 TIP3     1005     TIP3     H2       HT       0.417000       1.00800           0
     20351 TIP3     1006     TIP3     OH2      OT      -0.834000       15.9994           0
     20352 TIP3     1006     TIP3     H1       HT       0.417000       1.00800           0
     20353 TIP3     1006     TIP3     H2       HT       0.417000       1.00800           0
     20354 TIP3     1007     TIP3     OH2      OT      -0.834000       15.9994           0
     20355 TIP3     1007     TIP3     H1       HT       0.417000       1.00800           0
     20356 TIP3     1007     TIP3     H2       HT       0.417000       1.00800           0
     20357 TIP3     1008     TIP3     OH2      OT      -0.834000       15.9994           0
     20358 TIP3     1008     TIP3     H1       HT       0.417000       1.00800           0
     20359 TIP3     1008     TIP3     H2       HT       0.417000       1.00800           0
     20360 TIP3     1009     TIP3     OH2      OT      -0.834000       15.9994           0
     20361 TIP3     1009     TIP3     H1       HT       0.417000       1.00800           0
     20362 TIP3     1009     TIP3     H2       HT       0.417000       1.00800           0
     20363 TIP3     1010     TIP3     OH2      OT      -0.834000       15.9994           0
     20364 TIP3     1010     TIP3     H1       HT       0.417000       1.00800           0
     20365 TIP3     1010     TIP3     H2       HT       0.417000       1.00800           0
     20366 TIP3     1011     TIP3     OH2      OT      -0.834000       15.9994           0
     20367 TIP3     1011     TIP3     H1       HT       0.417000       1.00800           0
     20368 TIP3     1011     TIP3     H2       HT       0.417000       1.00800           0
     20369 TIP3     1012     TIP3     OH2      OT      -0.834000       15.9994           0
     20370 TIP3     1012     TIP3     H1       HT       0.417000       1.00800           0
     20371 TIP3     1012     TIP3     H2       HT       0.417000       1.00800           0
     20372 TIP3     1013     TIP3     OH2      OT      -0.834000       15.9994           0
     20373 TIP3     1013     TIP3     H1       HT       0.417000       1.00800           0
     20374 TIP3     1013     TIP3     H2       HT       0.417000       1.00800           0
     20375 TIP3     1014     TIP3     OH2      OT      -0.834000       15.9994           0
     20376 TIP3     1014     TIP3     H1       HT       0.417000       1.00800           0
     20377 TIP3     1014     TIP3     H2       HT       0.417000       1.00800           0
     20378 TIP3     1015     TIP3     OH2      OT      -0.834000       15.9994           0
     20379 TIP3     1015     TIP3     H1       HT       0.417000       1.00800           0
     20380 TIP3     1015     TIP3     H2       HT       0.417000       1.00800           0
     20381 TIP3     1016     TIP3     OH2      OT      -0.834000       15.9994           0
     20382 TIP3     1016     TIP3     H1       HT       0.417000       1.00800           0
     20383 TIP3     1016     TIP3     H2       HT       0.417000       1.00800           0
     20384 TIP3     1017     TIP3     OH2      OT      -0.834000       15.9994           0
     20385 TIP3     1017     TIP3     H1       HT       0.417000       1.00800           0
     20386 TIP3     1017     TIP3     H2       HT       0.417000       1.00800           0
     20387 TIP3     1018     TIP3     OH2      OT      -0.834000       15.9994           0
     20388 TIP3     1018     TIP3     H1       HT       0.417000       1.00800           0
     20389 TIP3     1018     TIP3     H2       HT       0.417000       1.00800           0
     20390 TIP3     1019     TIP3     OH2      OT      -0.834000       15.9994           0
     20391 TIP3     1019     TIP3     H1       HT       0.417000       1.00800           0
     20392 TIP3     1019     TIP3     H2       HT       0.417000       1.00800           0
     20393 TIP3     1020     TIP3     OH2      OT      -0.834000       15.9994           0
     20394 TIP3     1020     TIP3     H1       HT       0.417000       1.00800           0
     20395 TIP3     1020     TIP3     H2       HT       0.417000       1.00800           0
     20396 TIP3     1021     TIP3     OH2      OT      -0.834000       15.9994           0
     20397 TIP3     1021     TIP3     H1       HT       0.417000       1.00800           0
     20398 TIP3     1021     TIP3     H2       HT       0.417000       1.00800           0
     20399 TIP3     1022     TIP3     OH2      OT      -0.834000       15.9994           0
     20400 TIP3     1022     TIP3     H1       HT       0.417000       1.00800           0
     20401 TIP3     1022     TIP3     H2       HT       0.417000       1.00800           0
     20402 TIP3     1023     TIP3     OH2      OT      -0.834000       15.9994           0
     20403 TIP3     1023     TIP3     H1       HT       0.417000       1.00800           0
     20404 TIP3     1023     TIP3     H2       HT       0.417000       1.00800           0
     20405 TIP3     1024     TIP3     OH2      OT      -0.834000       15.9994           0
     20406 TIP3     1024     TIP3     H1       HT       0.417000       1.00800           0
     20407 TIP3     1024     TIP3     H2       HT       0.417000       1.00800           0
     20408 TIP3     1025     TIP3     OH2      OT      -0.834000       15.9994           0
     20409 TIP3     1025     TIP3     H1       HT       0.417000       1.00800           0
     20410 TIP3     1025     TIP3     H2       HT       0.417000       1.00800           0
     20411 TIP3     1026     TIP3     OH2      OT      -0.834000       15.9994           0
     20412 TIP3     1026     TIP3     H1       HT       0.417000       1.00800           0
     20413 TIP3     1026     TIP3     H2       HT       0.417000       1.00800           0
     20414 TIP3     1027     TIP3     OH2      OT      -0.834000       15.9994           0
     20415 TIP3     1027     TIP3     H1       HT       0.417000       1.00800           0
     20416 TIP3     1027     TIP3     H2       HT       0.417000       1.00800           0
     20417 TIP3     1028     TIP3     OH2      OT      -0.834000       15.9994           0
     20418 TIP3     1028     TIP3     H1       HT       0.417000       1.00800           0
     20419 TIP3     1028     TIP3     H2       HT       0.417000       1.00800           0
     20420 TIP3     1029     TIP3     OH2      OT      -0.834000       15.9994           0
     20421 TIP3     1029     TIP3     H1       HT       0.417000       1.00800           0
     20422 TIP3     1029     TIP3     H2       HT       0.417000       1.00800           0
     20423 TIP3     1030     TIP3     OH2      OT      -0.834000       15.9994           0
     20424 TIP3     1030     TIP3     H1       HT       0.417000       1.00800           0
     20425 TIP3     1030     TIP3     H2       HT       0.417000       1.00800           0
     20426 TIP3     1031     TIP3     OH2      OT      -0.834000       15.9994           0
     20427 TIP3     1031     TIP3     H1       HT       0.417000       1.00800           0
     20428 TIP3     1031     TIP3     H2       HT       0.417000       1.00800           0
     20429 TIP3     1032     TIP3     OH2      OT      -0.834000       15.9994           0
     20430 TIP3     1032     TIP3     H1       HT       0.417000       1.00800           0
     20431 TIP3     1032     TIP3     H2       HT       0.417000       1.00800           0
     20432 TIP3     1033     TIP3     OH2      OT      -0.834000       15.9994           0
     20433 TIP3     1033     TIP3     H1       HT       0.417000       1.00800           0
     20434 TIP3     1033     TIP3     H2       HT       0.417000       1.00800           0
     20435 TIP3     1034     TIP3     OH2      OT      -0.834000       15.9994           0
     20436 TIP3     1034     TIP3     H1       HT       0.417000       1.00800           0
     20437 TIP3     1034     TIP3     H2       HT       0.417000       1.00800           0
     20438 TIP3     1035     TIP3     OH2      OT      -0.834000       15.9994           0
     20439 TIP3     1035     TIP3     H1       HT       0.417000       1.00800           0
     20440 TIP3     1035     TIP3     H2       HT       0.417000       1.00800           0
     20441 TIP3     1036     TIP3     OH2      OT      -0.834000       15.9994           0
     20442 TIP3     1036     TIP3     H1       HT       0.417000       1.00800           0
     20443 TIP3     1036     TIP3     H2       HT       0.417000       1.00800           0
     20444 TIP3     1037     TIP3     OH2      OT      -0.834000       15.9994           0
     20445 TIP3     1037     TIP3     H1       HT       0.417000       1.00800           0
     20446 TIP3     1037     TIP3     H2       HT       0.417000       1.00800           0
     20447 TIP3     1038     TIP3     OH2      OT      -0.834000       15.9994           0
     20448 TIP3     1038     TIP3     H1       HT       0.417000       1.00800           0
     20449 TIP3     1038     TIP3     H2       HT       0.417000       1.00800           0
     20450 TIP3     1039     TIP3     OH2      OT      -0.834000       15.9994           0
     20451 TIP3     1039     TIP3     H1       HT       0.417000       1.00800           0
     20452 TIP3     1039     TIP3     H2       HT       0.417000       1.00800           0
     20453 TIP3     1040     TIP3     OH2      OT      -0.834000       15.9994           0
     20454 TIP3     1040     TIP3     H1       HT       0.417000       1.00800           0
     20455 TIP3     1040     TIP3     H2       HT       0.417000       1.00800           0
     20456 TIP3     1041     TIP3     OH2      OT      -0.834000       15.9994           0
     20457 TIP3     1041     TIP3     H1       HT       0.417000       1.00800           0
     20458 TIP3     1041     TIP3     H2       HT       0.417000       1.00800           0
     20459 TIP3     1042     TIP3     OH2      OT      -0.834000       15.9994           0
     20460 TIP3     1042     TIP3     H1       HT       0.417000       1.00800           0
     20461 TIP3     1042     TIP3     H2       HT       0.417000       1.00800           0
     20462 TIP3     1043     TIP3     OH2      OT      -0.834000       15.9994           0
     20463 TIP3     1043     TIP3     H1       HT       0.417000       1.00800           0
     20464 TIP3     1043     TIP3     H2       HT       0.417000       1.00800           0
     20465 TIP3     1044     TIP3     OH2      OT      -0.834000       15.9994           0
     20466 TIP3     1044     TIP3     H1       HT       0.417000       1.00800           0
     20467 TIP3     1044     TIP3     H2       HT       0.417000       1.00800           0
     20468 TIP3     1045     TIP3     OH2      OT      -0.834000       15.9994           0
     20469 TIP3     1045     TIP3     H1       HT       0.417000       1.00800           0
     20470 TIP3     1045     TIP3     H2       HT       0.417000       1.00800           0
     20471 TIP3     1046     TIP3     OH2      OT      -0.834000       15.9994           0
     20472 TIP3     1046     TIP3     H1       HT       0.417000       1.00800           0
     20473 TIP3     1046     TIP3     H2       HT       0.417000       1.00800           0
     20474 TIP3     1047     TIP3     OH2      OT      -0.834000       15.9994           0
     20475 TIP3     1047     TIP3     H1       HT       0.417000       1.00800           0
     20476 TIP3     1047     TIP3     H2       HT       0.417000       1.00800           0
     20477 TIP3     1048     TIP3     OH2      OT      -0.834000       15.9994           0
     20478 TIP3     1048     TIP3     H1       HT       0.417000       1.00800           0
     20479 TIP3     1048     TIP3     H2       HT       0.417000       1.00800           0
     20480 TIP3     1049     TIP3     OH2      OT      -0.834000       15.9994           0
     20481 TIP3     1049     TIP3     H1       HT       0.417000       1.00800           0
     20482 TIP3     1049     TIP3     H2       HT       0.417000       1.00800           0
     20483 TIP3     1050     TIP3     OH2      OT      -0.834000       15.9994           0
     20484 TIP3     1050     TIP3     H1       HT       0.417000       1.00800           0
     20485 TIP3     1050     TIP3     H2       HT       0.417000       1.00800           0
     20486 TIP3     1051     TIP3     OH2      OT      -0.834000       15.9994           0
     20487 TIP3     1051     TIP3     H1       HT       0.417000       1.00800           0
     20488 TIP3     1051     TIP3     H2       HT       0.417000       1.00800           0
     20489 TIP3     1052     TIP3     OH2      OT      -0.834000       15.9994           0
     20490 TIP3     1052     TIP3     H1       HT       0.417000       1.00800           0
     20491 TIP3     1052     TIP3     H2       HT       0.417000       1.00800           0
     20492 TIP3     1053     TIP3     OH2      OT      -0.834000       15.9994           0
     20493 TIP3     1053     TIP3     H1       HT       0.417000       1.00800           0
     20494 TIP3     1053     TIP3     H2       HT       0.417000       1.00800           0
     20495 TIP3     1054     TIP3     OH2      OT      -0.834000       15.9994           0
     20496 TIP3     1054     TIP3     H1       HT       0.417000       1.00800           0
     20497 TIP3     1054     TIP3     H2       HT       0.417000       1.00800           0
     20498 TIP3     1055     TIP3     OH2      OT      -0.834000       15.9994           0
     20499 TIP3     1055     TIP3     H1       HT       0.417000       1.00800           0
     20500 TIP3     1055     TIP3     H2       HT       0.417000       1.00800           0
     20501 TIP3     1056     TIP3     OH2      OT      -0.834000       15.9994           0
     20502 TIP3     1056     TIP3     H1       HT       0.417000       1.00800           0
     20503 TIP3     1056     TIP3     H2       HT       0.417000       1.00800           0
     20504 TIP3     1057     TIP3     OH2      OT      -0.834000       15.9994           0
     20505 TIP3     1057     TIP3     H1       HT       0.417000       1.00800           0
     20506 TIP3     1057     TIP3     H2       HT       0.417000       1.00800           0
     20507 TIP3     1058     TIP3     OH2      OT      -0.834000       15.9994           0
     20508 TIP3     1058     TIP3     H1       HT       0.417000       1.00800           0
     20509 TIP3     1058     TIP3     H2       HT       0.417000       1.00800           0
     20510 TIP3     1059     TIP3     OH2      OT      -0.834000       15.9994           0
     20511 TIP3     1059     TIP3     H1       HT       0.417000       1.00800           0
     20512 TIP3     1059     TIP3     H2       HT       0.417000       1.00800           0
     20513 TIP3     1060     TIP3     OH2      OT      -0.834000       15.9994           0
     20514 TIP3     1060     TIP3     H1       HT       0.417000       1.00800           0
     20515 TIP3     1060     TIP3     H2       HT       0.417000       1.00800           0
     20516 TIP3     1061     TIP3     OH2      OT      -0.834000       15.9994           0
     20517 TIP3     1061     TIP3     H1       HT       0.417000       1.00800           0
     20518 TIP3     1061     TIP3     H2       HT       0.417000       1.00800           0
     20519 TIP3     1062     TIP3     OH2      OT      -0.834000       15.9994           0
     20520 TIP3     1062     TIP3     H1       HT       0.417000       1.00800           0
     20521 TIP3     1062     TIP3     H2       HT       0.417000       1.00800           0
     20522 TIP3     1063     TIP3     OH2      OT      -0.834000       15.9994           0
     20523 TIP3     1063     TIP3     H1       HT       0.417000       1.00800           0
     20524 TIP3     1063     TIP3     H2       HT       0.417000       1.00800           0
     20525 TIP3     1064     TIP3     OH2      OT      -0.834000       15.9994           0
     20526 TIP3     1064     TIP3     H1       HT       0.417000       1.00800           0
     20527 TIP3     1064     TIP3     H2       HT       0.417000       1.00800           0
     20528 TIP3     1065     TIP3     OH2      OT      -0.834000       15.9994           0
     20529 TIP3     1065     TIP3     H1       HT       0.417000       1.00800           0
     20530 TIP3     1065     TIP3     H2       HT       0.417000       1.00800           0
     20531 TIP3     1066     TIP3     OH2      OT      -0.834000       15.9994           0
     20532 TIP3     1066     TIP3     H1       HT       0.417000       1.00800           0
     20533 TIP3     1066     TIP3     H2       HT       0.417000       1.00800           0
     20534 TIP3     1067     TIP3     OH2      OT      -0.834000       15.9994           0
     20535 TIP3     1067     TIP3     H1       HT       0.417000       1.00800           0
     20536 TIP3     1067     TIP3     H2       HT       0.417000       1.00800           0
     20537 TIP3     1068     TIP3     OH2      OT      -0.834000       15.9994           0
     20538 TIP3     1068     TIP3     H1       HT       0.417000       1.00800           0
     20539 TIP3     1068     TIP3     H2       HT       0.417000       1.00800           0
     20540 TIP3     1069     TIP3     OH2      OT      -0.834000       15.9994           0
     20541 TIP3     1069     TIP3     H1       HT       0.417000       1.00800           0
     20542 TIP3     1069     TIP3     H2       HT       0.417000       1.00800           0
     20543 TIP3     1070     TIP3     OH2      OT      -0.834000       15.9994           0
     20544 TIP3     1070     TIP3     H1       HT       0.417000       1.00800           0
     20545 TIP3     1070     TIP3     H2       HT       0.417000       1.00800           0
     20546 TIP3     1071     TIP3     OH2      OT      -0.834000       15.9994           0
     20547 TIP3     1071     TIP3     H1       HT       0.417000       1.00800           0
     20548 TIP3     1071     TIP3     H2       HT       0.417000       1.00800           0
     20549 TIP3     1072     TIP3     OH2      OT      -0.834000       15.9994           0
     20550 TIP3     1072     TIP3     H1       HT       0.417000       1.00800           0
     20551 TIP3     1072     TIP3     H2       HT       0.417000       1.00800           0
     20552 TIP3     1073     TIP3     OH2      OT      -0.834000       15.9994           0
     20553 TIP3     1073     TIP3     H1       HT       0.417000       1.00800           0
     20554 TIP3     1073     TIP3     H2       HT       0.417000       1.00800           0
     20555 TIP3     1074     TIP3     OH2      OT      -0.834000       15.9994           0
     20556 TIP3     1074     TIP3     H1       HT       0.417000       1.00800           0
     20557 TIP3     1074     TIP3     H2       HT       0.417000       1.00800           0
     20558 TIP3     1075     TIP3     OH2      OT      -0.834000       15.9994           0
     20559 TIP3     1075     TIP3     H1       HT       0.417000       1.00800           0
     20560 TIP3     1075     TIP3     H2       HT       0.417000       1.00800           0
     20561 TIP3     1076     TIP3     OH2      OT      -0.834000       15.9994           0
     20562 TIP3     1076     TIP3     H1       HT       0.417000       1.00800           0
     20563 TIP3     1076     TIP3     H2       HT       0.417000       1.00800           0
     20564 TIP3     1077     TIP3     OH2      OT      -0.834000       15.9994           0
     20565 TIP3     1077     TIP3     H1       HT       0.417000       1.00800           0
     20566 TIP3     1077     TIP3     H2       HT       0.417000       1.00800           0
     20567 TIP3     1078     TIP3     OH2      OT      -0.834000       15.9994           0
     20568 TIP3     1078     TIP3     H1       HT       0.417000       1.00800           0
     20569 TIP3     1078     TIP3     H2       HT       0.417000       1.00800           0
     20570 TIP3     1079     TIP3     OH2      OT      -0.834000       15.9994           0
     20571 TIP3     1079     TIP3     H1       HT       0.417000       1.00800           0
     20572 TIP3     1079     TIP3     H2       HT       0.417000       1.00800           0
     20573 TIP3     1080     TIP3     OH2      OT      -0.834000       15.9994           0
     20574 TIP3     1080     TIP3     H1       HT       0.417000       1.00800           0
     20575 TIP3     1080     TIP3     H2       HT       0.417000       1.00800           0
     20576 TIP3     1081     TIP3     OH2      OT      -0.834000       15.9994           0
     20577 TIP3     1081     TIP3     H1       HT       0.417000       1.00800           0
     20578 TIP3     1081     TIP3     H2       HT       0.417000       1.00800           0
     20579 TIP3     1082     TIP3     OH2      OT      -0.834000       15.9994           0
     20580 TIP3     1082     TIP3     H1       HT       0.417000       1.00800           0
     20581 TIP3     1082     TIP3     H2       HT       0.417000       1.00800           0
     20582 TIP3     1083     TIP3     OH2      OT      -0.834000       15.9994           0
     20583 TIP3     1083     TIP3     H1       HT       0.417000       1.00800           0
     20584 TIP3     1083     TIP3     H2       HT       0.417000       1.00800           0
     20585 TIP3     1084     TIP3     OH2      OT      -0.834000       15.9994           0
     20586 TIP3     1084     TIP3     H1       HT       0.417000       1.00800           0
     20587 TIP3     1084     TIP3     H2       HT       0.417000       1.00800           0
     20588 TIP3     1085     TIP3     OH2      OT      -0.834000       15.9994           0
     20589 TIP3     1085     TIP3     H1       HT       0.417000       1.00800           0
     20590 TIP3     1085     TIP3     H2       HT       0.417000       1.00800           0
     20591 TIP3     1086     TIP3     OH2      OT      -0.834000       15.9994           0
     20592 TIP3     1086     TIP3     H1       HT       0.417000       1.00800           0
     20593 TIP3     1086     TIP3     H2       HT       0.417000       1.00800           0
     20594 TIP3     1087     TIP3     OH2      OT      -0.834000       15.9994           0
     20595 TIP3     1087     TIP3     H1       HT       0.417000       1.00800           0
     20596 TIP3     1087     TIP3     H2       HT       0.417000       1.00800           0
     20597 TIP3     1088     TIP3     OH2      OT      -0.834000       15.9994           0
     20598 TIP3     1088     TIP3     H1       HT       0.417000       1.00800           0
     20599 TIP3     1088     TIP3     H2       HT       0.417000       1.00800           0
     20600 TIP3     1089     TIP3     OH2      OT      -0.834000       15.9994           0
     20601 TIP3     1089     TIP3     H1       HT       0.417000       1.00800           0
     20602 TIP3     1089     TIP3     H2       HT       0.417000       1.00800           0
     20603 TIP3     1090     TIP3     OH2      OT      -0.834000       15.9994           0
     20604 TIP3     1090     TIP3     H1       HT       0.417000       1.00800           0
     20605 TIP3     1090     TIP3     H2       HT       0.417000       1.00800           0
     20606 TIP3     1091     TIP3     OH2      OT      -0.834000       15.9994           0
     20607 TIP3     1091     TIP3     H1       HT       0.417000       1.00800           0
     20608 TIP3     1091     TIP3     H2       HT       0.417000       1.00800           0
     20609 TIP3     1092     TIP3     OH2      OT      -0.834000       15.9994           0
     20610 TIP3     1092     TIP3     H1       HT       0.417000       1.00800           0
     20611 TIP3     1092     TIP3     H2       HT       0.417000       1.00800           0
     20612 TIP3     1093     TIP3     OH2      OT      -0.834000       15.9994           0
     20613 TIP3     1093     TIP3     H1       HT       0.417000       1.00800           0
     20614 TIP3     1093     TIP3     H2       HT       0.417000       1.00800           0
     20615 TIP3     1094     TIP3     OH2      OT      -0.834000       15.9994           0
     20616 TIP3     1094     TIP3     H1       HT       0.417000       1.00800           0
     20617 TIP3     1094     TIP3     H2       HT       0.417000       1.00800           0
     20618 TIP3     1095     TIP3     OH2      OT      -0.834000       15.9994           0
     20619 TIP3     1095     TIP3     H1       HT       0.417000       1.00800           0
     20620 TIP3     1095     TIP3     H2       HT       0.417000       1.00800           0
     20621 TIP3     1096     TIP3     OH2      OT      -0.834000       15.9994           0
     20622 TIP3     1096     TIP3     H1       HT       0.417000       1.00800           0
     20623 TIP3     1096     TIP3     H2       HT       0.417000       1.00800           0
     20624 TIP3     1097     TIP3     OH2      OT      -0.834000       15.9994           0
     20625 TIP3     1097     TIP3     H1       HT       0.417000       1.00800           0
     20626 TIP3     1097     TIP3     H2       HT       0.417000       1.00800           0
     20627 TIP3     1098     TIP3     OH2      OT      -0.834000       15.9994           0
     20628 TIP3     1098     TIP3     H1       HT       0.417000       1.00800           0
     20629 TIP3     1098     TIP3     H2       HT       0.417000       1.00800           0
     20630 TIP3     1099     TIP3     OH2      OT      -0.834000       15.9994           0
     20631 TIP3     1099     TIP3     H1       HT       0.417000       1.00800           0
     20632 TIP3     1099     TIP3     H2       HT       0.417000       1.00800           0
     20633 TIP3     1100     TIP3     OH2      OT      -0.834000       15.9994           0
     20634 TIP3     1100     TIP3     H1       HT       0.417000       1.00800           0
     20635 TIP3     1100     TIP3     H2       HT       0.417000       1.00800           0
     20636 TIP3     1101     TIP3     OH2      OT      -0.834000       15.9994           0
     20637 TIP3     1101     TIP3     H1       HT       0.417000       1.00800           0
     20638 TIP3     1101     TIP3     H2       HT       0.417000       1.00800           0
     20639 TIP3     1102     TIP3     OH2      OT      -0.834000       15.9994           0
     20640 TIP3     1102     TIP3     H1       HT       0.417000       1.00800           0
     20641 TIP3     1102     TIP3     H2       HT       0.417000       1.00800           0
     20642 TIP3     1103     TIP3     OH2      OT      -0.834000       15.9994           0
     20643 TIP3     1103     TIP3     H1       HT       0.417000       1.00800           0
     20644 TIP3     1103     TIP3     H2       HT       0.417000       1.00800           0
     20645 TIP3     1104     TIP3     OH2      OT      -0.834000       15.9994           0
     20646 TIP3     1104     TIP3     H1       HT       0.417000       1.00800           0
     20647 TIP3     1104     TIP3     H2       HT       0.417000       1.00800           0
     20648 TIP3     1105     TIP3     OH2      OT      -0.834000       15.9994           0
     20649 TIP3     1105     TIP3     H1       HT       0.417000       1.00800           0
     20650 TIP3     1105     TIP3     H2       HT       0.417000       1.00800           0
     20651 TIP3     1106     TIP3     OH2      OT      -0.834000       15.9994           0
     20652 TIP3     1106     TIP3     H1       HT       0.417000       1.00800           0
     20653 TIP3     1106     TIP3     H2       HT       0.417000       1.00800           0
     20654 TIP3     1107     TIP3     OH2      OT      -0.834000       15.9994           0
     20655 TIP3     1107     TIP3     H1       HT       0.417000       1.00800           0
     20656 TIP3     1107     TIP3     H2       HT       0.417000       1.00800           0
     20657 TIP3     1108     TIP3     OH2      OT      -0.834000       15.9994           0
     20658 TIP3     1108     TIP3     H1       HT       0.417000       1.00800           0
     20659 TIP3     1108     TIP3     H2       HT       0.417000       1.00800           0
     20660 TIP3     1109     TIP3     OH2      OT      -0.834000       15.9994           0
     20661 TIP3     1109     TIP3     H1       HT       0.417000       1.00800           0
     20662 TIP3     1109     TIP3     H2       HT       0.417000       1.00800           0
     20663 TIP3     1110     TIP3     OH2      OT      -0.834000       15.9994           0
     20664 TIP3     1110     TIP3     H1       HT       0.417000       1.00800           0
     20665 TIP3     1110     TIP3     H2       HT       0.417000       1.00800           0
     20666 TIP3     1111     TIP3     OH2      OT      -0.834000       15.9994           0
     20667 TIP3     1111     TIP3     H1       HT       0.417000       1.00800           0
     20668 TIP3     1111     TIP3     H2       HT       0.417000       1.00800           0
     20669 TIP3     1112     TIP3     OH2      OT      -0.834000       15.9994           0
     20670 TIP3     1112     TIP3     H1       HT       0.417000       1.00800           0
     20671 TIP3     1112     TIP3     H2       HT       0.417000       1.00800           0
     20672 TIP3     1113     TIP3     OH2      OT      -0.834000       15.9994           0
     20673 TIP3     1113     TIP3     H1       HT       0.417000       1.00800           0
     20674 TIP3     1113     TIP3     H2       HT       0.417000       1.00800           0
     20675 TIP3     1114     TIP3     OH2      OT      -0.834000       15.9994           0
     20676 TIP3     1114     TIP3     H1       HT       0.417000       1.00800           0
     20677 TIP3     1114     TIP3     H2       HT       0.417000       1.00800           0
     20678 TIP3     1115     TIP3     OH2      OT      -0.834000       15.9994           0
     20679 TIP3     1115     TIP3     H1       HT       0.417000       1.00800           0
     20680 TIP3     1115     TIP3     H2       HT       0.417000       1.00800           0
     20681 TIP3     1116     TIP3     OH2      OT      -0.834000       15.9994           0
     20682 TIP3     1116     TIP3     H1       HT       0.417000       1.00800           0
     20683 TIP3     1116     TIP3     H2       HT       0.417000       1.00800           0
     20684 TIP3     1117     TIP3     OH2      OT      -0.834000       15.9994           0
     20685 TIP3     1117     TIP3     H1       HT       0.417000       1.00800           0
     20686 TIP3     1117     TIP3     H2       HT       0.417000       1.00800           0
     20687 TIP3     1118     TIP3     OH2      OT      -0.834000       15.9994           0
     20688 TIP3     1118     TIP3     H1       HT       0.417000       1.00800           0
     20689 TIP3     1118     TIP3     H2       HT       0.417000       1.00800           0
     20690 TIP3     1119     TIP3     OH2      OT      -0.834000       15.9994           0
     20691 TIP3     1119     TIP3     H1       HT       0.417000       1.00800           0
     20692 TIP3     1119     TIP3     H2       HT       0.417000       1.00800           0
     20693 TIP3     1120     TIP3     OH2      OT      -0.834000       15.9994           0
     20694 TIP3     1120     TIP3     H1       HT       0.417000       1.00800           0
     20695 TIP3     1120     TIP3     H2       HT       0.417000       1.00800           0
     20696 TIP3     1121     TIP3     OH2      OT      -0.834000       15.9994           0
     20697 TIP3     1121     TIP3     H1       HT       0.417000       1.00800           0
     20698 TIP3     1121     TIP3     H2       HT       0.417000       1.00800           0
     20699 TIP3     1122     TIP3     OH2      OT      -0.834000       15.9994           0
     20700 TIP3     1122     TIP3     H1       HT       0.417000       1.00800           0
     20701 TIP3     1122     TIP3     H2       HT       0.417000       1.00800           0
     20702 TIP3     1123     TIP3     OH2      OT      -0.834000       15.9994           0
     20703 TIP3     1123     TIP3     H1       HT       0.417000       1.00800           0
     20704 TIP3     1123     TIP3     H2       HT       0.417000       1.00800           0
     20705 TIP3     1124     TIP3     OH2      OT      -0.834000       15.9994           0
     20706 TIP3     1124     TIP3     H1       HT       0.417000       1.00800           0
     20707 TIP3     1124     TIP3     H2       HT       0.417000       1.00800           0
     20708 TIP3     1125     TIP3     OH2      OT      -0.834000       15.9994           0
     20709 TIP3     1125     TIP3     H1       HT       0.417000       1.00800           0
     20710 TIP3     1125     TIP3     H2       HT       0.417000       1.00800           0
     20711 TIP3     1126     TIP3     OH2      OT      -0.834000       15.9994           0
     20712 TIP3     1126     TIP3     H1       HT       0.417000       1.00800           0
     20713 TIP3     1126     TIP3     H2       HT       0.417000       1.00800           0
     20714 TIP3     1127     TIP3     OH2      OT      -0.834000       15.9994           0
     20715 TIP3     1127     TIP3     H1       HT       0.417000       1.00800           0
     20716 TIP3     1127     TIP3     H2       HT       0.417000       1.00800           0
     20717 TIP3     1128     TIP3     OH2      OT      -0.834000       15.9994           0
     20718 TIP3     1128     TIP3     H1       HT       0.417000       1.00800           0
     20719 TIP3     1128     TIP3     H2       HT       0.417000       1.00800           0
     20720 TIP3     1129     TIP3     OH2      OT      -0.834000       15.9994           0
     20721 TIP3     1129     TIP3     H1       HT       0.417000       1.00800           0
     20722 TIP3     1129     TIP3     H2       HT       0.417000       1.00800           0
     20723 TIP3     1130     TIP3     OH2      OT      -0.834000       15.9994           0
     20724 TIP3     1130     TIP3     H1       HT       0.417000       1.00800           0
     20725 TIP3     1130     TIP3     H2       HT       0.417000       1.00800           0
     20726 TIP3     1131     TIP3     OH2      OT      -0.834000       15.9994           0
     20727 TIP3     1131     TIP3     H1       HT       0.417000       1.00800           0
     20728 TIP3     1131     TIP3     H2       HT       0.417000       1.00800           0
     20729 TIP3     1132     TIP3     OH2      OT      -0.834000       15.9994           0
     20730 TIP3     1132     TIP3     H1       HT       0.417000       1.00800           0
     20731 TIP3     1132     TIP3     H2       HT       0.417000       1.00800           0
     20732 TIP3     1133     TIP3     OH2      OT      -0.834000       15.9994           0
     20733 TIP3     1133     TIP3     H1       HT       0.417000       1.00800           0
     20734 TIP3     1133     TIP3     H2       HT       0.417000       1.00800           0
     20735 TIP3     1134     TIP3     OH2      OT      -0.834000       15.9994           0
     20736 TIP3     1134     TIP3     H1       HT       0.417000       1.00800           0
     20737 TIP3     1134     TIP3     H2       HT       0.417000       1.00800           0
     20738 TIP3     1135     TIP3     OH2      OT      -0.834000       15.9994           0
     20739 TIP3     1135     TIP3     H1       HT       0.417000       1.00800           0
     20740 TIP3     1135     TIP3     H2       HT       0.417000       1.00800           0
     20741 TIP3     1136     TIP3     OH2      OT      -0.834000       15.9994           0
     20742 TIP3     1136     TIP3     H1       HT       0.417000       1.00800           0
     20743 TIP3     1136     TIP3     H2       HT       0.417000       1.00800           0
     20744 TIP3     1137     TIP3     OH2      OT      -0.834000       15.9994           0
     20745 TIP3     1137     TIP3     H1       HT       0.417000       1.00800           0
     20746 TIP3     1137     TIP3     H2       HT       0.417000       1.00800           0
     20747 TIP3     1138     TIP3     OH2      OT      -0.834000       15.9994           0
     20748 TIP3     1138     TIP3     H1       HT       0.417000       1.00800           0
     20749 TIP3     1138     TIP3     H2       HT       0.417000       1.00800           0
     20750 TIP3     1139     TIP3     OH2      OT      -0.834000       15.9994           0
     20751 TIP3     1139     TIP3     H1       HT       0.417000       1.00800           0
     20752 TIP3     1139     TIP3     H2       HT       0.417000       1.00800           0
     20753 TIP3     1140     TIP3     OH2      OT      -0.834000       15.9994           0
     20754 TIP3     1140     TIP3     H1       HT       0.417000       1.00800           0
     20755 TIP3     1140     TIP3     H2       HT       0.417000       1.00800           0
     20756 TIP3     1141     TIP3     OH2      OT      -0.834000       15.9994           0
     20757 TIP3     1141     TIP3     H1       HT       0.417000       1.00800           0
     20758 TIP3     1141     TIP3     H2       HT       0.417000       1.00800           0
     20759 TIP3     1142     TIP3     OH2      OT      -0.834000       15.9994           0
     20760 TIP3     1142     TIP3     H1       HT       0.417000       1.00800           0
     20761 TIP3     1142     TIP3     H2       HT       0.417000       1.00800           0
     20762 TIP3     1143     TIP3     OH2      OT      -0.834000       15.9994           0
     20763 TIP3     1143     TIP3     H1       HT       0.417000       1.00800           0
     20764 TIP3     1143     TIP3     H2       HT       0.417000       1.00800           0
     20765 TIP3     1144     TIP3     OH2      OT      -0.834000       15.9994           0
     20766 TIP3     1144     TIP3     H1       HT       0.417000       1.00800           0
     20767 TIP3     1144     TIP3     H2       HT       0.417000       1.00800           0
     20768 TIP3     1145     TIP3     OH2      OT      -0.834000       15.9994           0
     20769 TIP3     1145     TIP3     H1       HT       0.417000       1.00800           0
     20770 TIP3     1145     TIP3     H2       HT       0.417000       1.00800           0
     20771 TIP3     1146     TIP3     OH2      OT      -0.834000       15.9994           0
     20772 TIP3     1146     TIP3     H1       HT       0.417000       1.00800           0
     20773 TIP3     1146     TIP3     H2       HT       0.417000       1.00800           0
     20774 TIP3     1147     TIP3     OH2      OT      -0.834000       15.9994           0
     20775 TIP3     1147     TIP3     H1       HT       0.417000       1.00800           0
     20776 TIP3     1147     TIP3     H2       HT       0.417000       1.00800           0
     20777 TIP3     1148     TIP3     OH2      OT      -0.834000       15.9994           0
     20778 TIP3     1148     TIP3     H1       HT       0.417000       1.00800           0
     20779 TIP3     1148     TIP3     H2       HT       0.417000       1.00800           0
     20780 TIP3     1149     TIP3     OH2      OT      -0.834000       15.9994           0
     20781 TIP3     1149     TIP3     H1       HT       0.417000       1.00800           0
     20782 TIP3     1149     TIP3     H2       HT       0.417000       1.00800           0
     20783 TIP3     1150     TIP3     OH2      OT      -0.834000       15.9994           0
     20784 TIP3     1150     TIP3     H1       HT       0.417000       1.00800           0
     20785 TIP3     1150     TIP3     H2       HT       0.417000       1.00800           0
     20786 TIP3     1151     TIP3     OH2      OT      -0.834000       15.9994           0
     20787 TIP3     1151     TIP3     H1       HT       0.417000       1.00800           0
     20788 TIP3     1151     TIP3     H2       HT       0.417000       1.00800           0
     20789 TIP3     1152     TIP3     OH2      OT      -0.834000       15.9994           0
     20790 TIP3     1152     TIP3     H1       HT       0.417000       1.00800           0
     20791 TIP3     1152     TIP3     H2       HT       0.417000       1.00800           0
     20792 TIP3     1153     TIP3     OH2      OT      -0.834000       15.9994           0
     20793 TIP3     1153     TIP3     H1       HT       0.417000       1.00800           0
     20794 TIP3     1153     TIP3     H2       HT       0.417000       1.00800           0
     20795 TIP3     1154     TIP3     OH2      OT      -0.834000       15.9994           0
     20796 TIP3     1154     TIP3     H1       HT       0.417000       1.00800           0
     20797 TIP3     1154     TIP3     H2       HT       0.417000       1.00800           0
     20798 TIP3     1155     TIP3     OH2      OT      -0.834000       15.9994           0
     20799 TIP3     1155     TIP3     H1       HT       0.417000       1.00800           0
     20800 TIP3     1155     TIP3     H2       HT       0.417000       1.00800           0
     20801 TIP3     1156     TIP3     OH2      OT      -0.834000       15.9994           0
     20802 TIP3     1156     TIP3     H1       HT       0.417000       1.00800           0
     20803 TIP3     1156     TIP3     H2       HT       0.417000       1.00800           0
     20804 TIP3     1157     TIP3     OH2      OT      -0.834000       15.9994           0
     20805 TIP3     1157     TIP3     H1       HT       0.417000       1.00800           0
     20806 TIP3     1157     TIP3     H2       HT       0.417000       1.00800           0
     20807 TIP3     1158     TIP3     OH2      OT      -0.834000       15.9994           0
     20808 TIP3     1158     TIP3     H1       HT       0.417000       1.00800           0
     20809 TIP3     1158     TIP3     H2       HT       0.417000       1.00800           0
     20810 TIP3     1159     TIP3     OH2      OT      -0.834000       15.9994           0
     20811 TIP3     1159     TIP3     H1       HT       0.417000       1.00800           0
     20812 TIP3     1159     TIP3     H2       HT       0.417000       1.00800           0
     20813 TIP3     1160     TIP3     OH2      OT      -0.834000       15.9994           0
     20814 TIP3     1160     TIP3     H1       HT       0.417000       1.00800           0
     20815 TIP3     1160     TIP3     H2       HT       0.417000       1.00800           0
     20816 TIP3     1161     TIP3     OH2      OT      -0.834000       15.9994           0
     20817 TIP3     1161     TIP3     H1       HT       0.417000       1.00800           0
     20818 TIP3     1161     TIP3     H2       HT       0.417000       1.00800           0
     20819 TIP3     1162     TIP3     OH2      OT      -0.834000       15.9994           0
     20820 TIP3     1162     TIP3     H1       HT       0.417000       1.00800           0
     20821 TIP3     1162     TIP3     H2       HT       0.417000       1.00800           0
     20822 TIP3     1163     TIP3     OH2      OT      -0.834000       15.9994           0
     20823 TIP3     1163     TIP3     H1       HT       0.417000       1.00800           0
     20824 TIP3     1163     TIP3     H2       HT       0.417000       1.00800           0
     20825 TIP3     1164     TIP3     OH2      OT      -0.834000       15.9994           0
     20826 TIP3     1164     TIP3     H1       HT       0.417000       1.00800           0
     20827 TIP3     1164     TIP3     H2       HT       0.417000       1.00800           0
     20828 TIP3     1165     TIP3     OH2      OT      -0.834000       15.9994           0
     20829 TIP3     1165     TIP3     H1       HT       0.417000       1.00800           0
     20830 TIP3     1165     TIP3     H2       HT       0.417000       1.00800           0
     20831 TIP3     1166     TIP3     OH2      OT      -0.834000       15.9994           0
     20832 TIP3     1166     TIP3     H1       HT       0.417000       1.00800           0
     20833 TIP3     1166     TIP3     H2       HT       0.417000       1.00800           0
     20834 TIP3     1167     TIP3     OH2      OT      -0.834000       15.9994           0
     20835 TIP3     1167     TIP3     H1       HT       0.417000       1.00800           0
     20836 TIP3     1167     TIP3     H2       HT       0.417000       1.00800           0
     20837 TIP3     1168     TIP3     OH2      OT      -0.834000       15.9994           0
     20838 TIP3     1168     TIP3     H1       HT       0.417000       1.00800           0
     20839 TIP3     1168     TIP3     H2       HT       0.417000       1.00800           0
     20840 TIP3     1169     TIP3     OH2      OT      -0.834000       15.9994           0
     20841 TIP3     1169     TIP3     H1       HT       0.417000       1.00800           0
     20842 TIP3     1169     TIP3     H2       HT       0.417000       1.00800           0
     20843 TIP3     1170     TIP3     OH2      OT      -0.834000       15.9994           0
     20844 TIP3     1170     TIP3     H1       HT       0.417000       1.00800           0
     20845 TIP3     1170     TIP3     H2       HT       0.417000       1.00800           0
     20846 TIP3     1171     TIP3     OH2      OT      -0.834000       15.9994           0
     20847 TIP3     1171     TIP3     H1       HT       0.417000       1.00800           0
     20848 TIP3     1171     TIP3     H2       HT       0.417000       1.00800           0
     20849 TIP3     1172     TIP3     OH2      OT      -0.834000       15.9994           0
     20850 TIP3     1172     TIP3     H1       HT       0.417000       1.00800           0
     20851 TIP3     1172     TIP3     H2       HT       0.417000       1.00800           0
     20852 TIP3     1173     TIP3     OH2      OT      -0.834000       15.9994           0
     20853 TIP3     1173     TIP3     H1       HT       0.417000       1.00800           0
     20854 TIP3     1173     TIP3     H2       HT       0.417000       1.00800           0
     20855 TIP3     1174     TIP3     OH2      OT      -0.834000       15.9994           0
     20856 TIP3     1174     TIP3     H1       HT       0.417000       1.00800           0
     20857 TIP3     1174     TIP3     H2       HT       0.417000       1.00800           0
     20858 TIP3     1175     TIP3     OH2      OT      -0.834000       15.9994           0
     20859 TIP3     1175     TIP3     H1       HT       0.417000       1.00800           0
     20860 TIP3     1175     TIP3     H2       HT       0.417000       1.00800           0
     20861 TIP3     1176     TIP3     OH2      OT      -0.834000       15.9994           0
     20862 TIP3     1176     TIP3     H1       HT       0.417000       1.00800           0
     20863 TIP3     1176     TIP3     H2       HT       0.417000       1.00800           0
     20864 TIP3     1177     TIP3     OH2      OT      -0.834000       15.9994           0
     20865 TIP3     1177     TIP3     H1       HT       0.417000       1.00800           0
     20866 TIP3     1177     TIP3     H2       HT       0.417000       1.00800           0
     20867 TIP3     1178     TIP3     OH2      OT      -0.834000       15.9994           0
     20868 TIP3     1178     TIP3     H1       HT       0.417000       1.00800           0
     20869 TIP3     1178     TIP3     H2       HT       0.417000       1.00800           0
     20870 TIP3     1179     TIP3     OH2      OT      -0.834000       15.9994           0
     20871 TIP3     1179     TIP3     H1       HT       0.417000       1.00800           0
     20872 TIP3     1179     TIP3     H2       HT       0.417000       1.00800           0
     20873 TIP3     1180     TIP3     OH2      OT      -0.834000       15.9994           0
     20874 TIP3     1180     TIP3     H1       HT       0.417000       1.00800           0
     20875 TIP3     1180     TIP3     H2       HT       0.417000       1.00800           0
     20876 TIP3     1181     TIP3     OH2      OT      -0.834000       15.9994           0
     20877 TIP3     1181     TIP3     H1       HT       0.417000       1.00800           0
     20878 TIP3     1181     TIP3     H2       HT       0.417000       1.00800           0
     20879 TIP3     1182     TIP3     OH2      OT      -0.834000       15.9994           0
     20880 TIP3     1182     TIP3     H1       HT       0.417000       1.00800           0
     20881 TIP3     1182     TIP3     H2       HT       0.417000       1.00800           0
     20882 TIP3     1183     TIP3     OH2      OT      -0.834000       15.9994           0
     20883 TIP3     1183     TIP3     H1       HT       0.417000       1.00800           0
     20884 TIP3     1183     TIP3     H2       HT       0.417000       1.00800           0
     20885 TIP3     1184     TIP3     OH2      OT      -0.834000       15.9994           0
     20886 TIP3     1184     TIP3     H1       HT       0.417000       1.00800           0
     20887 TIP3     1184     TIP3     H2       HT       0.417000       1.00800           0
     20888 TIP3     1185     TIP3     OH2      OT      -0.834000       15.9994           0
     20889 TIP3     1185     TIP3     H1       HT       0.417000       1.00800           0
     20890 TIP3     1185     TIP3     H2       HT       0.417000       1.00800           0
     20891 TIP3     1186     TIP3     OH2      OT      -0.834000       15.9994           0
     20892 TIP3     1186     TIP3     H1       HT       0.417000       1.00800           0
     20893 TIP3     1186     TIP3     H2       HT       0.417000       1.00800           0
     20894 TIP3     1187     TIP3     OH2      OT      -0.834000       15.9994           0
     20895 TIP3     1187     TIP3     H1       HT       0.417000       1.00800           0
     20896 TIP3     1187     TIP3     H2       HT       0.417000       1.00800           0
     20897 TIP3     1188     TIP3     OH2      OT      -0.834000       15.9994           0
     20898 TIP3     1188     TIP3     H1       HT       0.417000       1.00800           0
     20899 TIP3     1188     TIP3     H2       HT       0.417000       1.00800           0
     20900 TIP3     1189     TIP3     OH2      OT      -0.834000       15.9994           0
     20901 TIP3     1189     TIP3     H1       HT       0.417000       1.00800           0
     20902 TIP3     1189     TIP3     H2       HT       0.417000       1.00800           0
     20903 TIP3     1190     TIP3     OH2      OT      -0.834000       15.9994           0
     20904 TIP3     1190     TIP3     H1       HT       0.417000       1.00800           0
     20905 TIP3     1190     TIP3     H2       HT       0.417000       1.00800           0
     20906 TIP3     1191     TIP3     OH2      OT      -0.834000       15.9994           0
     20907 TIP3     1191     TIP3     H1       HT       0.417000       1.00800           0
     20908 TIP3     1191     TIP3     H2       HT       0.417000       1.00800           0
     20909 TIP3     1192     TIP3     OH2      OT      -0.834000       15.9994           0
     20910 TIP3     1192     TIP3     H1       HT       0.417000       1.00800           0
     20911 TIP3     1192     TIP3     H2       HT       0.417000       1.00800           0
     20912 TIP3     1193     TIP3     OH2      OT      -0.834000       15.9994           0
     20913 TIP3     1193     TIP3     H1       HT       0.417000       1.00800           0
     20914 TIP3     1193     TIP3     H2       HT       0.417000       1.00800           0
     20915 TIP3     1194     TIP3     OH2      OT      -0.834000       15.9994           0
     20916 TIP3     1194     TIP3     H1       HT       0.417000       1.00800           0
     20917 TIP3     1194     TIP3     H2       HT       0.417000       1.00800           0
     20918 TIP3     1195     TIP3     OH2      OT      -0.834000       15.9994           0
     20919 TIP3     1195     TIP3     H1       HT       0.417000       1.00800           0
     20920 TIP3     1195     TIP3     H2       HT       0.417000       1.00800           0
     20921 TIP3     1196     TIP3     OH2      OT      -0.834000       15.9994           0
     20922 TIP3     1196     TIP3     H1       HT       0.417000       1.00800           0
     20923 TIP3     1196     TIP3     H2       HT       0.417000       1.00800           0
     20924 TIP3     1197     TIP3     OH2      OT      -0.834000       15.9994           0
     20925 TIP3     1197     TIP3     H1       HT       0.417000       1.00800           0
     20926 TIP3     1197     TIP3     H2       HT       0.417000       1.00800           0
     20927 TIP3     1198     TIP3     OH2      OT      -0.834000       15.9994           0
     20928 TIP3     1198     TIP3     H1       HT       0.417000       1.00800           0
     20929 TIP3     1198     TIP3     H2       HT       0.417000       1.00800           0
     20930 TIP3     1199     TIP3     OH2      OT      -0.834000       15.9994           0
     20931 TIP3     1199     TIP3     H1       HT       0.417000       1.00800           0
     20932 TIP3     1199     TIP3     H2       HT       0.417000       1.00800           0
     20933 TIP3     1200     TIP3     OH2      OT      -0.834000       15.9994           0
     20934 TIP3     1200     TIP3     H1       HT       0.417000       1.00800           0
     20935 TIP3     1200     TIP3     H2       HT       0.417000       1.00800           0
     20936 TIP3     1201     TIP3     OH2      OT      -0.834000       15.9994           0
     20937 TIP3     1201     TIP3     H1       HT       0.417000       1.00800           0
     20938 TIP3     1201     TIP3     H2       HT       0.417000       1.00800           0
     20939 TIP3     1202     TIP3     OH2      OT      -0.834000       15.9994           0
     20940 TIP3     1202     TIP3     H1       HT       0.417000       1.00800           0
     20941 TIP3     1202     TIP3     H2       HT       0.417000       1.00800           0
     20942 TIP3     1203     TIP3     OH2      OT      -0.834000       15.9994           0
     20943 TIP3     1203     TIP3     H1       HT       0.417000       1.00800           0
     20944 TIP3     1203     TIP3     H2       HT       0.417000       1.00800           0
     20945 TIP3     1204     TIP3     OH2      OT      -0.834000       15.9994           0
     20946 TIP3     1204     TIP3     H1       HT       0.417000       1.00800           0
     20947 TIP3     1204     TIP3     H2       HT       0.417000       1.00800           0
     20948 TIP3     1205     TIP3     OH2      OT      -0.834000       15.9994           0
     20949 TIP3     1205     TIP3     H1       HT       0.417000       1.00800           0
     20950 TIP3     1205     TIP3     H2       HT       0.417000       1.00800           0
     20951 TIP3     1206     TIP3     OH2      OT      -0.834000       15.9994           0
     20952 TIP3     1206     TIP3     H1       HT       0.417000       1.00800           0
     20953 TIP3     1206     TIP3     H2       HT       0.417000       1.00800           0
     20954 TIP3     1207     TIP3     OH2      OT      -0.834000       15.9994           0
     20955 TIP3     1207     TIP3     H1       HT       0.417000       1.00800           0
     20956 TIP3     1207     TIP3     H2       HT       0.417000       1.00800           0
     20957 TIP3     1208     TIP3     OH2      OT      -0.834000       15.9994           0
     20958 TIP3     1208     TIP3     H1       HT       0.417000       1.00800           0
     20959 TIP3     1208     TIP3     H2       HT       0.417000       1.00800           0
     20960 TIP3     1209     TIP3     OH2      OT      -0.834000       15.9994           0
     20961 TIP3     1209     TIP3     H1       HT       0.417000       1.00800           0
     20962 TIP3     1209     TIP3     H2       HT       0.417000       1.00800           0
     20963 TIP3     1210     TIP3     OH2      OT      -0.834000       15.9994           0
     20964 TIP3     1210     TIP3     H1       HT       0.417000       1.00800           0
     20965 TIP3     1210     TIP3     H2       HT       0.417000       1.00800           0
     20966 TIP3     1211     TIP3     OH2      OT      -0.834000       15.9994           0
     20967 TIP3     1211     TIP3     H1       HT       0.417000       1.00800           0
     20968 TIP3     1211     TIP3     H2       HT       0.417000       1.00800           0
     20969 TIP3     1212     TIP3     OH2      OT      -0.834000       15.9994           0
     20970 TIP3     1212     TIP3     H1       HT       0.417000       1.00800           0
     20971 TIP3     1212     TIP3     H2       HT       0.417000       1.00800           0
     20972 TIP3     1213     TIP3     OH2      OT      -0.834000       15.9994           0
     20973 TIP3     1213     TIP3     H1       HT       0.417000       1.00800           0
     20974 TIP3     1213     TIP3     H2       HT       0.417000       1.00800           0
     20975 TIP3     1214     TIP3     OH2      OT      -0.834000       15.9994           0
     20976 TIP3     1214     TIP3     H1       HT       0.417000       1.00800           0
     20977 TIP3     1214     TIP3     H2       HT       0.417000       1.00800           0
     20978 TIP3     1215     TIP3     OH2      OT      -0.834000       15.9994           0
     20979 TIP3     1215     TIP3     H1       HT       0.417000       1.00800           0
     20980 TIP3     1215     TIP3     H2       HT       0.417000       1.00800           0
     20981 TIP3     1216     TIP3     OH2      OT      -0.834000       15.9994           0
     20982 TIP3     1216     TIP3     H1       HT       0.417000       1.00800           0
     20983 TIP3     1216     TIP3     H2       HT       0.417000       1.00800           0
     20984 TIP3     1217     TIP3     OH2      OT      -0.834000       15.9994           0
     20985 TIP3     1217     TIP3     H1       HT       0.417000       1.00800           0
     20986 TIP3     1217     TIP3     H2       HT       0.417000       1.00800           0
     20987 TIP3     1218     TIP3     OH2      OT      -0.834000       15.9994           0
     20988 TIP3     1218     TIP3     H1       HT       0.417000       1.00800           0
     20989 TIP3     1218     TIP3     H2       HT       0.417000       1.00800           0
     20990 TIP3     1219     TIP3     OH2      OT      -0.834000       15.9994           0
     20991 TIP3     1219     TIP3     H1       HT       0.417000       1.00800           0
     20992 TIP3     1219     TIP3     H2       HT       0.417000       1.00800           0
     20993 TIP3     1220     TIP3     OH2      OT      -0.834000       15.9994           0
     20994 TIP3     1220     TIP3     H1       HT       0.417000       1.00800           0
     20995 TIP3     1220     TIP3     H2       HT       0.417000       1.00800           0
     20996 TIP3     1221     TIP3     OH2      OT      -0.834000       15.9994           0
     20997 TIP3     1221     TIP3     H1       HT       0.417000       1.00800           0
     20998 TIP3     1221     TIP3     H2       HT       0.417000       1.00800           0
     20999 TIP3     1222     TIP3     OH2      OT      -0.834000       15.9994           0
     21000 TIP3     1222     TIP3     H1       HT       0.417000       1.00800           0
     21001 TIP3     1222     TIP3     H2       HT       0.417000       1.00800           0
     21002 TIP3     1223     TIP3     OH2      OT      -0.834000       15.9994           0
     21003 TIP3     1223     TIP3     H1       HT       0.417000       1.00800           0
     21004 TIP3     1223     TIP3     H2       HT       0.417000       1.00800           0
     21005 TIP3     1224     TIP3     OH2      OT      -0.834000       15.9994           0
     21006 TIP3     1224     TIP3     H1       HT       0.417000       1.00800           0
     21007 TIP3     1224     TIP3     H2       HT       0.417000       1.00800           0
     21008 TIP3     1225     TIP3     OH2      OT      -0.834000       15.9994           0
     21009 TIP3     1225     TIP3     H1       HT       0.417000       1.00800           0
     21010 TIP3     1225     TIP3     H2       HT       0.417000       1.00800           0
     21011 TIP3     1226     TIP3     OH2      OT      -0.834000       15.9994           0
     21012 TIP3     1226     TIP3     H1       HT       0.417000       1.00800           0
     21013 TIP3     1226     TIP3     H2       HT       0.417000       1.00800           0
     21014 TIP3     1227     TIP3     OH2      OT      -0.834000       15.9994           0
     21015 TIP3     1227     TIP3     H1       HT       0.417000       1.00800           0
     21016 TIP3     1227     TIP3     H2       HT       0.417000       1.00800           0
     21017 TIP3     1228     TIP3     OH2      OT      -0.834000       15.9994           0
     21018 TIP3     1228     TIP3     H1       HT       0.417000       1.00800           0
     21019 TIP3     1228     TIP3     H2       HT       0.417000       1.00800           0
     21020 TIP3     1229     TIP3     OH2      OT      -0.834000       15.9994           0
     21021 TIP3     1229     TIP3     H1       HT       0.417000       1.00800           0
     21022 TIP3     1229     TIP3     H2       HT       0.417000       1.00800           0
     21023 TIP3     1230     TIP3     OH2      OT      -0.834000       15.9994           0
     21024 TIP3     1230     TIP3     H1       HT       0.417000       1.00800           0
     21025 TIP3     1230     TIP3     H2       HT       0.417000       1.00800           0
     21026 TIP3     1231     TIP3     OH2      OT      -0.834000       15.9994           0
     21027 TIP3     1231     TIP3     H1       HT       0.417000       1.00800           0
     21028 TIP3     1231     TIP3     H2       HT       0.417000       1.00800           0
     21029 TIP3     1232     TIP3     OH2      OT      -0.834000       15.9994           0
     21030 TIP3     1232     TIP3     H1       HT       0.417000       1.00800           0
     21031 TIP3     1232     TIP3     H2       HT       0.417000       1.00800           0
     21032 TIP3     1233     TIP3     OH2      OT      -0.834000       15.9994           0
     21033 TIP3     1233     TIP3     H1       HT       0.417000       1.00800           0
     21034 TIP3     1233     TIP3     H2       HT       0.417000       1.00800           0
     21035 TIP3     1234     TIP3     OH2      OT      -0.834000       15.9994           0
     21036 TIP3     1234     TIP3     H1       HT       0.417000       1.00800           0
     21037 TIP3     1234     TIP3     H2       HT       0.417000       1.00800           0
     21038 TIP3     1235     TIP3     OH2      OT      -0.834000       15.9994           0
     21039 TIP3     1235     TIP3     H1       HT       0.417000       1.00800           0
     21040 TIP3     1235     TIP3     H2       HT       0.417000       1.00800           0
     21041 TIP3     1236     TIP3     OH2      OT      -0.834000       15.9994           0
     21042 TIP3     1236     TIP3     H1       HT       0.417000       1.00800           0
     21043 TIP3     1236     TIP3     H2       HT       0.417000       1.00800           0
     21044 TIP3     1237     TIP3     OH2      OT      -0.834000       15.9994           0
     21045 TIP3     1237     TIP3     H1       HT       0.417000       1.00800           0
     21046 TIP3     1237     TIP3     H2       HT       0.417000       1.00800           0
     21047 TIP3     1238     TIP3     OH2      OT      -0.834000       15.9994           0
     21048 TIP3     1238     TIP3     H1       HT       0.417000       1.00800           0
     21049 TIP3     1238     TIP3     H2       HT       0.417000       1.00800           0
     21050 TIP3     1239     TIP3     OH2      OT      -0.834000       15.9994           0
     21051 TIP3     1239     TIP3     H1       HT       0.417000       1.00800           0
     21052 TIP3     1239     TIP3     H2       HT       0.417000       1.00800           0
     21053 TIP3     1240     TIP3     OH2      OT      -0.834000       15.9994           0
     21054 TIP3     1240     TIP3     H1       HT       0.417000       1.00800           0
     21055 TIP3     1240     TIP3     H2       HT       0.417000       1.00800           0
     21056 TIP3     1241     TIP3     OH2      OT      -0.834000       15.9994           0
     21057 TIP3     1241     TIP3     H1       HT       0.417000       1.00800           0
     21058 TIP3     1241     TIP3     H2       HT       0.417000       1.00800           0
     21059 TIP3     1242     TIP3     OH2      OT      -0.834000       15.9994           0
     21060 TIP3     1242     TIP3     H1       HT       0.417000       1.00800           0
     21061 TIP3     1242     TIP3     H2       HT       0.417000       1.00800           0
     21062 TIP3     1243     TIP3     OH2      OT      -0.834000       15.9994           0
     21063 TIP3     1243     TIP3     H1       HT       0.417000       1.00800           0
     21064 TIP3     1243     TIP3     H2       HT       0.417000       1.00800           0
     21065 TIP3     1244     TIP3     OH2      OT      -0.834000       15.9994           0
     21066 TIP3     1244     TIP3     H1       HT       0.417000       1.00800           0
     21067 TIP3     1244     TIP3     H2       HT       0.417000       1.00800           0
     21068 TIP3     1245     TIP3     OH2      OT      -0.834000       15.9994           0
     21069 TIP3     1245     TIP3     H1       HT       0.417000       1.00800           0
     21070 TIP3     1245     TIP3     H2       HT       0.417000       1.00800           0
     21071 TIP3     1246     TIP3     OH2      OT      -0.834000       15.9994           0
     21072 TIP3     1246     TIP3     H1       HT       0.417000       1.00800           0
     21073 TIP3     1246     TIP3     H2       HT       0.417000       1.00800           0
     21074 TIP3     1247     TIP3     OH2      OT      -0.834000       15.9994           0
     21075 TIP3     1247     TIP3     H1       HT       0.417000       1.00800           0
     21076 TIP3     1247     TIP3     H2       HT       0.417000       1.00800           0
     21077 TIP3     1248     TIP3     OH2      OT      -0.834000       15.9994           0
     21078 TIP3     1248     TIP3     H1       HT       0.417000       1.00800           0
     21079 TIP3     1248     TIP3     H2       HT       0.417000       1.00800           0
     21080 TIP3     1249     TIP3     OH2      OT      -0.834000       15.9994           0
     21081 TIP3     1249     TIP3     H1       HT       0.417000       1.00800           0
     21082 TIP3     1249     TIP3     H2       HT       0.417000       1.00800           0
     21083 TIP3     1250     TIP3     OH2      OT      -0.834000       15.9994           0
     21084 TIP3     1250     TIP3     H1       HT       0.417000       1.00800           0
     21085 TIP3     1250     TIP3     H2       HT       0.417000       1.00800           0
     21086 TIP3     1251     TIP3     OH2      OT      -0.834000       15.9994           0
     21087 TIP3     1251     TIP3     H1       HT       0.417000       1.00800           0
     21088 TIP3     1251     TIP3     H2       HT       0.417000       1.00800           0
     21089 TIP3     1252     TIP3     OH2      OT      -0.834000       15.9994           0
     21090 TIP3     1252     TIP3     H1       HT       0.417000       1.00800           0
     21091 TIP3     1252     TIP3     H2       HT       0.417000       1.00800           0
     21092 TIP3     1253     TIP3     OH2      OT      -0.834000       15.9994           0
     21093 TIP3     1253     TIP3     H1       HT       0.417000       1.00800           0
     21094 TIP3     1253     TIP3     H2       HT       0.417000       1.00800           0
     21095 TIP3     1254     TIP3     OH2      OT      -0.834000       15.9994           0
     21096 TIP3     1254     TIP3     H1       HT       0.417000       1.00800           0
     21097 TIP3     1254     TIP3     H2       HT       0.417000       1.00800           0
     21098 TIP3     1255     TIP3     OH2      OT      -0.834000       15.9994           0
     21099 TIP3     1255     TIP3     H1       HT       0.417000       1.00800           0
     21100 TIP3     1255     TIP3     H2       HT       0.417000       1.00800           0
     21101 TIP3     1256     TIP3     OH2      OT      -0.834000       15.9994           0
     21102 TIP3     1256     TIP3     H1       HT       0.417000       1.00800           0
     21103 TIP3     1256     TIP3     H2       HT       0.417000       1.00800           0
     21104 TIP3     1257     TIP3     OH2      OT      -0.834000       15.9994           0
     21105 TIP3     1257     TIP3     H1       HT       0.417000       1.00800           0
     21106 TIP3     1257     TIP3     H2       HT       0.417000       1.00800           0
     21107 TIP3     1258     TIP3     OH2      OT      -0.834000       15.9994           0
     21108 TIP3     1258     TIP3     H1       HT       0.417000       1.00800           0
     21109 TIP3     1258     TIP3     H2       HT       0.417000       1.00800           0
     21110 TIP3     1259     TIP3     OH2      OT      -0.834000       15.9994           0
     21111 TIP3     1259     TIP3     H1       HT       0.417000       1.00800           0
     21112 TIP3     1259     TIP3     H2       HT       0.417000       1.00800           0
     21113 TIP3     1260     TIP3     OH2      OT      -0.834000       15.9994           0
     21114 TIP3     1260     TIP3     H1       HT       0.417000       1.00800           0
     21115 TIP3     1260     TIP3     H2       HT       0.417000       1.00800           0
     21116 TIP3     1261     TIP3     OH2      OT      -0.834000       15.9994           0
     21117 TIP3     1261     TIP3     H1       HT       0.417000       1.00800           0
     21118 TIP3     1261     TIP3     H2       HT       0.417000       1.00800           0
     21119 TIP3     1262     TIP3     OH2      OT      -0.834000       15.9994           0
     21120 TIP3     1262     TIP3     H1       HT       0.417000       1.00800           0
     21121 TIP3     1262     TIP3     H2       HT       0.417000       1.00800           0
     21122 TIP3     1263     TIP3     OH2      OT      -0.834000       15.9994           0
     21123 TIP3     1263     TIP3     H1       HT       0.417000       1.00800           0
     21124 TIP3     1263     TIP3     H2       HT       0.417000       1.00800           0
     21125 TIP3     1264     TIP3     OH2      OT      -0.834000       15.9994           0
     21126 TIP3     1264     TIP3     H1       HT       0.417000       1.00800           0
     21127 TIP3     1264     TIP3     H2       HT       0.417000       1.00800           0
     21128 TIP3     1265     TIP3     OH2      OT      -0.834000       15.9994           0
     21129 TIP3     1265     TIP3     H1       HT       0.417000       1.00800           0
     21130 TIP3     1265     TIP3     H2       HT       0.417000       1.00800           0
     21131 TIP3     1266     TIP3     OH2      OT      -0.834000       15.9994           0
     21132 TIP3     1266     TIP3     H1       HT       0.417000       1.00800           0
     21133 TIP3     1266     TIP3     H2       HT       0.417000       1.00800           0
     21134 TIP3     1267     TIP3     OH2      OT      -0.834000       15.9994           0
     21135 TIP3     1267     TIP3     H1       HT       0.417000       1.00800           0
     21136 TIP3     1267     TIP3     H2       HT       0.417000       1.00800           0
     21137 TIP3     1268     TIP3     OH2      OT      -0.834000       15.9994           0
     21138 TIP3     1268     TIP3     H1       HT       0.417000       1.00800           0
     21139 TIP3     1268     TIP3     H2       HT       0.417000       1.00800           0
     21140 TIP3     1269     TIP3     OH2      OT      -0.834000       15.9994           0
     21141 TIP3     1269     TIP3     H1       HT       0.417000       1.00800           0
     21142 TIP3     1269     TIP3     H2       HT       0.417000       1.00800           0
     21143 TIP3     1270     TIP3     OH2      OT      -0.834000       15.9994           0
     21144 TIP3     1270     TIP3     H1       HT       0.417000       1.00800           0
     21145 TIP3     1270     TIP3     H2       HT       0.417000       1.00800           0
     21146 TIP3     1271     TIP3     OH2      OT      -0.834000       15.9994           0
     21147 TIP3     1271     TIP3     H1       HT       0.417000       1.00800           0
     21148 TIP3     1271     TIP3     H2       HT       0.417000       1.00800           0
     21149 TIP3     1272     TIP3     OH2      OT      -0.834000       15.9994           0
     21150 TIP3     1272     TIP3     H1       HT       0.417000       1.00800           0
     21151 TIP3     1272     TIP3     H2       HT       0.417000       1.00800           0
     21152 TIP3     1273     TIP3     OH2      OT      -0.834000       15.9994           0
     21153 TIP3     1273     TIP3     H1       HT       0.417000       1.00800           0
     21154 TIP3     1273     TIP3     H2       HT       0.417000       1.00800           0
     21155 TIP3     1274     TIP3     OH2      OT      -0.834000       15.9994           0
     21156 TIP3     1274     TIP3     H1       HT       0.417000       1.00800           0
     21157 TIP3     1274     TIP3     H2       HT       0.417000       1.00800           0
     21158 TIP3     1275     TIP3     OH2      OT      -0.834000       15.9994           0
     21159 TIP3     1275     TIP3     H1       HT       0.417000       1.00800           0
     21160 TIP3     1275     TIP3     H2       HT       0.417000       1.00800           0
     21161 TIP3     1276     TIP3     OH2      OT      -0.834000       15.9994           0
     21162 TIP3     1276     TIP3     H1       HT       0.417000       1.00800           0
     21163 TIP3     1276     TIP3     H2       HT       0.417000       1.00800           0
     21164 TIP3     1277     TIP3     OH2      OT      -0.834000       15.9994           0
     21165 TIP3     1277     TIP3     H1       HT       0.417000       1.00800           0
     21166 TIP3     1277     TIP3     H2       HT       0.417000       1.00800           0
     21167 TIP3     1278     TIP3     OH2      OT      -0.834000       15.9994           0
     21168 TIP3     1278     TIP3     H1       HT       0.417000       1.00800           0
     21169 TIP3     1278     TIP3     H2       HT       0.417000       1.00800           0
     21170 TIP3     1279     TIP3     OH2      OT      -0.834000       15.9994           0
     21171 TIP3     1279     TIP3     H1       HT       0.417000       1.00800           0
     21172 TIP3     1279     TIP3     H2       HT       0.417000       1.00800           0
     21173 TIP3     1280     TIP3     OH2      OT      -0.834000       15.9994           0
     21174 TIP3     1280     TIP3     H1       HT       0.417000       1.00800           0
     21175 TIP3     1280     TIP3     H2       HT       0.417000       1.00800           0
     21176 TIP3     1281     TIP3     OH2      OT      -0.834000       15.9994           0
     21177 TIP3     1281     TIP3     H1       HT       0.417000       1.00800           0
     21178 TIP3     1281     TIP3     H2       HT       0.417000       1.00800           0
     21179 TIP3     1282     TIP3     OH2      OT      -0.834000       15.9994           0
     21180 TIP3     1282     TIP3     H1       HT       0.417000       1.00800           0
     21181 TIP3     1282     TIP3     H2       HT       0.417000       1.00800           0
     21182 TIP3     1283     TIP3     OH2      OT      -0.834000       15.9994           0
     21183 TIP3     1283     TIP3     H1       HT       0.417000       1.00800           0
     21184 TIP3     1283     TIP3     H2       HT       0.417000       1.00800           0
     21185 TIP3     1284     TIP3     OH2      OT      -0.834000       15.9994           0
     21186 TIP3     1284     TIP3     H1       HT       0.417000       1.00800           0
     21187 TIP3     1284     TIP3     H2       HT       0.417000       1.00800           0
     21188 TIP3     1285     TIP3     OH2      OT      -0.834000       15.9994           0
     21189 TIP3     1285     TIP3     H1       HT       0.417000       1.00800           0
     21190 TIP3     1285     TIP3     H2       HT       0.417000       1.00800           0
     21191 TIP3     1286     TIP3     OH2      OT      -0.834000       15.9994           0
     21192 TIP3     1286     TIP3     H1       HT       0.417000       1.00800           0
     21193 TIP3     1286     TIP3     H2       HT       0.417000       1.00800           0
     21194 TIP3     1287     TIP3     OH2      OT      -0.834000       15.9994           0
     21195 TIP3     1287     TIP3     H1       HT       0.417000       1.00800           0
     21196 TIP3     1287     TIP3     H2       HT       0.417000       1.00800           0
     21197 TIP3     1288     TIP3     OH2      OT      -0.834000       15.9994           0
     21198 TIP3     1288     TIP3     H1       HT       0.417000       1.00800           0
     21199 TIP3     1288     TIP3     H2       HT       0.417000       1.00800           0
     21200 TIP3     1289     TIP3     OH2      OT      -0.834000       15.9994           0
     21201 TIP3     1289     TIP3     H1       HT       0.417000       1.00800           0
     21202 TIP3     1289     TIP3     H2       HT       0.417000       1.00800           0
     21203 TIP3     1290     TIP3     OH2      OT      -0.834000       15.9994           0
     21204 TIP3     1290     TIP3     H1       HT       0.417000       1.00800           0
     21205 TIP3     1290     TIP3     H2       HT       0.417000       1.00800           0
     21206 TIP3     1291     TIP3     OH2      OT      -0.834000       15.9994           0
     21207 TIP3     1291     TIP3     H1       HT       0.417000       1.00800           0
     21208 TIP3     1291     TIP3     H2       HT       0.417000       1.00800           0
     21209 TIP3     1292     TIP3     OH2      OT      -0.834000       15.9994           0
     21210 TIP3     1292     TIP3     H1       HT       0.417000       1.00800           0
     21211 TIP3     1292     TIP3     H2       HT       0.417000       1.00800           0
     21212 TIP3     1293     TIP3     OH2      OT      -0.834000       15.9994           0
     21213 TIP3     1293     TIP3     H1       HT       0.417000       1.00800           0
     21214 TIP3     1293     TIP3     H2       HT       0.417000       1.00800           0
     21215 TIP3     1294     TIP3     OH2      OT      -0.834000       15.9994           0
     21216 TIP3     1294     TIP3     H1       HT       0.417000       1.00800           0
     21217 TIP3     1294     TIP3     H2       HT       0.417000       1.00800           0
     21218 TIP3     1295     TIP3     OH2      OT      -0.834000       15.9994           0
     21219 TIP3     1295     TIP3     H1       HT       0.417000       1.00800           0
     21220 TIP3     1295     TIP3     H2       HT       0.417000       1.00800           0
     21221 TIP3     1296     TIP3     OH2      OT      -0.834000       15.9994           0
     21222 TIP3     1296     TIP3     H1       HT       0.417000       1.00800           0
     21223 TIP3     1296     TIP3     H2       HT       0.417000       1.00800           0
     21224 TIP3     1297     TIP3     OH2      OT      -0.834000       15.9994           0
     21225 TIP3     1297     TIP3     H1       HT       0.417000       1.00800           0
     21226 TIP3     1297     TIP3     H2       HT       0.417000       1.00800           0
     21227 TIP3     1298     TIP3     OH2      OT      -0.834000       15.9994           0
     21228 TIP3     1298     TIP3     H1       HT       0.417000       1.00800           0
     21229 TIP3     1298     TIP3     H2       HT       0.417000       1.00800           0
     21230 TIP3     1299     TIP3     OH2      OT      -0.834000       15.9994           0
     21231 TIP3     1299     TIP3     H1       HT       0.417000       1.00800           0
     21232 TIP3     1299     TIP3     H2       HT       0.417000       1.00800           0
     21233 TIP3     1300     TIP3     OH2      OT      -0.834000       15.9994           0
     21234 TIP3     1300     TIP3     H1       HT       0.417000       1.00800           0
     21235 TIP3     1300     TIP3     H2       HT       0.417000       1.00800           0
     21236 TIP3     1301     TIP3     OH2      OT      -0.834000       15.9994           0
     21237 TIP3     1301     TIP3     H1       HT       0.417000       1.00800           0
     21238 TIP3     1301     TIP3     H2       HT       0.417000       1.00800           0
     21239 TIP3     1302     TIP3     OH2      OT      -0.834000       15.9994           0
     21240 TIP3     1302     TIP3     H1       HT       0.417000       1.00800           0
     21241 TIP3     1302     TIP3     H2       HT       0.417000       1.00800           0
     21242 TIP3     1303     TIP3     OH2      OT      -0.834000       15.9994           0
     21243 TIP3     1303     TIP3     H1       HT       0.417000       1.00800           0
     21244 TIP3     1303     TIP3     H2       HT       0.417000       1.00800           0
     21245 TIP3     1304     TIP3     OH2      OT      -0.834000       15.9994           0
     21246 TIP3     1304     TIP3     H1       HT       0.417000       1.00800           0
     21247 TIP3     1304     TIP3     H2       HT       0.417000       1.00800           0
     21248 TIP3     1305     TIP3     OH2      OT      -0.834000       15.9994           0
     21249 TIP3     1305     TIP3     H1       HT       0.417000       1.00800           0
     21250 TIP3     1305     TIP3     H2       HT       0.417000       1.00800           0
     21251 TIP3     1306     TIP3     OH2      OT      -0.834000       15.9994           0
     21252 TIP3     1306     TIP3     H1       HT       0.417000       1.00800           0
     21253 TIP3     1306     TIP3     H2       HT       0.417000       1.00800           0
     21254 TIP3     1307     TIP3     OH2      OT      -0.834000       15.9994           0
     21255 TIP3     1307     TIP3     H1       HT       0.417000       1.00800           0
     21256 TIP3     1307     TIP3     H2       HT       0.417000       1.00800           0
     21257 TIP3     1308     TIP3     OH2      OT      -0.834000       15.9994           0
     21258 TIP3     1308     TIP3     H1       HT       0.417000       1.00800           0
     21259 TIP3     1308     TIP3     H2       HT       0.417000       1.00800           0
     21260 TIP3     1309     TIP3     OH2      OT      -0.834000       15.9994           0
     21261 TIP3     1309     TIP3     H1       HT       0.417000       1.00800           0
     21262 TIP3     1309     TIP3     H2       HT       0.417000       1.00800           0
     21263 TIP3     1310     TIP3     OH2      OT      -0.834000       15.9994           0
     21264 TIP3     1310     TIP3     H1       HT       0.417000       1.00800           0
     21265 TIP3     1310     TIP3     H2       HT       0.417000       1.00800           0
     21266 TIP3     1311     TIP3     OH2      OT      -0.834000       15.9994           0
     21267 TIP3     1311     TIP3     H1       HT       0.417000       1.00800           0
     21268 TIP3     1311     TIP3     H2       HT       0.417000       1.00800           0
     21269 TIP3     1312     TIP3     OH2      OT      -0.834000       15.9994           0
     21270 TIP3     1312     TIP3     H1       HT       0.417000       1.00800           0
     21271 TIP3     1312     TIP3     H2       HT       0.417000       1.00800           0
     21272 TIP3     1313     TIP3     OH2      OT      -0.834000       15.9994           0
     21273 TIP3     1313     TIP3     H1       HT       0.417000       1.00800           0
     21274 TIP3     1313     TIP3     H2       HT       0.417000       1.00800           0
     21275 TIP3     1314     TIP3     OH2      OT      -0.834000       15.9994           0
     21276 TIP3     1314     TIP3     H1       HT       0.417000       1.00800           0
     21277 TIP3     1314     TIP3     H2       HT       0.417000       1.00800           0
     21278 TIP3     1315     TIP3     OH2      OT      -0.834000       15.9994           0
     21279 TIP3     1315     TIP3     H1       HT       0.417000       1.00800           0
     21280 TIP3     1315     TIP3     H2       HT       0.417000       1.00800           0
     21281 TIP3     1316     TIP3     OH2      OT      -0.834000       15.9994           0
     21282 TIP3     1316     TIP3     H1       HT       0.417000       1.00800           0
     21283 TIP3     1316     TIP3     H2       HT       0.417000       1.00800           0
     21284 TIP3     1317     TIP3     OH2      OT      -0.834000       15.9994           0
     21285 TIP3     1317     TIP3     H1       HT       0.417000       1.00800           0
     21286 TIP3     1317     TIP3     H2       HT       0.417000       1.00800           0
     21287 TIP3     1318     TIP3     OH2      OT      -0.834000       15.9994           0
     21288 TIP3     1318     TIP3     H1       HT       0.417000       1.00800           0
     21289 TIP3     1318     TIP3     H2       HT       0.417000       1.00800           0
     21290 TIP3     1319     TIP3     OH2      OT      -0.834000       15.9994           0
     21291 TIP3     1319     TIP3     H1       HT       0.417000       1.00800           0
     21292 TIP3     1319     TIP3     H2       HT       0.417000       1.00800           0
     21293 TIP3     1320     TIP3     OH2      OT      -0.834000       15.9994           0
     21294 TIP3     1320     TIP3     H1       HT       0.417000       1.00800           0
     21295 TIP3     1320     TIP3     H2       HT       0.417000       1.00800           0
     21296 TIP3     1321     TIP3     OH2      OT      -0.834000       15.9994           0
     21297 TIP3     1321     TIP3     H1       HT       0.417000       1.00800           0
     21298 TIP3     1321     TIP3     H2       HT       0.417000       1.00800           0
     21299 TIP3     1322     TIP3     OH2      OT      -0.834000       15.9994           0
     21300 TIP3     1322     TIP3     H1       HT       0.417000       1.00800           0
     21301 TIP3     1322     TIP3     H2       HT       0.417000       1.00800           0
     21302 TIP3     1323     TIP3     OH2      OT      -0.834000       15.9994           0
     21303 TIP3     1323     TIP3     H1       HT       0.417000       1.00800           0
     21304 TIP3     1323     TIP3     H2       HT       0.417000       1.00800           0
     21305 TIP3     1324     TIP3     OH2      OT      -0.834000       15.9994           0
     21306 TIP3     1324     TIP3     H1       HT       0.417000       1.00800           0
     21307 TIP3     1324     TIP3     H2       HT       0.417000       1.00800           0
     21308 TIP3     1325     TIP3     OH2      OT      -0.834000       15.9994           0
     21309 TIP3     1325     TIP3     H1       HT       0.417000       1.00800           0
     21310 TIP3     1325     TIP3     H2       HT       0.417000       1.00800           0
     21311 TIP3     1326     TIP3     OH2      OT      -0.834000       15.9994           0
     21312 TIP3     1326     TIP3     H1       HT       0.417000       1.00800           0
     21313 TIP3     1326     TIP3     H2       HT       0.417000       1.00800           0
     21314 TIP3     1327     TIP3     OH2      OT      -0.834000       15.9994           0
     21315 TIP3     1327     TIP3     H1       HT       0.417000       1.00800           0
     21316 TIP3     1327     TIP3     H2       HT       0.417000       1.00800           0
     21317 TIP3     1328     TIP3     OH2      OT      -0.834000       15.9994           0
     21318 TIP3     1328     TIP3     H1       HT       0.417000       1.00800           0
     21319 TIP3     1328     TIP3     H2       HT       0.417000       1.00800           0
     21320 TIP3     1329     TIP3     OH2      OT      -0.834000       15.9994           0
     21321 TIP3     1329     TIP3     H1       HT       0.417000       1.00800           0
     21322 TIP3     1329     TIP3     H2       HT       0.417000       1.00800           0
     21323 TIP3     1330     TIP3     OH2      OT      -0.834000       15.9994           0
     21324 TIP3     1330     TIP3     H1       HT       0.417000       1.00800           0
     21325 TIP3     1330     TIP3     H2       HT       0.417000       1.00800           0
     21326 TIP3     1331     TIP3     OH2      OT      -0.834000       15.9994           0
     21327 TIP3     1331     TIP3     H1       HT       0.417000       1.00800           0
     21328 TIP3     1331     TIP3     H2       HT       0.417000       1.00800           0
     21329 TIP3     1332     TIP3     OH2      OT      -0.834000       15.9994           0
     21330 TIP3     1332     TIP3     H1       HT       0.417000       1.00800           0
     21331 TIP3     1332     TIP3     H2       HT       0.417000       1.00800           0
     21332 TIP3     1333     TIP3     OH2      OT      -0.834000       15.9994           0
     21333 TIP3     1333     TIP3     H1       HT       0.417000       1.00800           0
     21334 TIP3     1333     TIP3     H2       HT       0.417000       1.00800           0
     21335 TIP3     1334     TIP3     OH2      OT      -0.834000       15.9994           0
     21336 TIP3     1334     TIP3     H1       HT       0.417000       1.00800           0
     21337 TIP3     1334     TIP3     H2       HT       0.417000       1.00800           0
     21338 TIP3     1335     TIP3     OH2      OT      -0.834000       15.9994           0
     21339 TIP3     1335     TIP3     H1       HT       0.417000       1.00800           0
     21340 TIP3     1335     TIP3     H2       HT       0.417000       1.00800           0
     21341 TIP3     1336     TIP3     OH2      OT      -0.834000       15.9994           0
     21342 TIP3     1336     TIP3     H1       HT       0.417000       1.00800           0
     21343 TIP3     1336     TIP3     H2       HT       0.417000       1.00800           0
     21344 TIP3     1337     TIP3     OH2      OT      -0.834000       15.9994           0
     21345 TIP3     1337     TIP3     H1       HT       0.417000       1.00800           0
     21346 TIP3     1337     TIP3     H2       HT       0.417000       1.00800           0
     21347 TIP3     1338     TIP3     OH2      OT      -0.834000       15.9994           0
     21348 TIP3     1338     TIP3     H1       HT       0.417000       1.00800           0
     21349 TIP3     1338     TIP3     H2       HT       0.417000       1.00800           0
     21350 TIP3     1339     TIP3     OH2      OT      -0.834000       15.9994           0
     21351 TIP3     1339     TIP3     H1       HT       0.417000       1.00800           0
     21352 TIP3     1339     TIP3     H2       HT       0.417000       1.00800           0
     21353 TIP3     1340     TIP3     OH2      OT      -0.834000       15.9994           0
     21354 TIP3     1340     TIP3     H1       HT       0.417000       1.00800           0
     21355 TIP3     1340     TIP3     H2       HT       0.417000       1.00800           0
     21356 TIP3     1341     TIP3     OH2      OT      -0.834000       15.9994           0
     21357 TIP3     1341     TIP3     H1       HT       0.417000       1.00800           0
     21358 TIP3     1341     TIP3     H2       HT       0.417000       1.00800           0
     21359 TIP3     1342     TIP3     OH2      OT      -0.834000       15.9994           0
     21360 TIP3     1342     TIP3     H1       HT       0.417000       1.00800           0
     21361 TIP3     1342     TIP3     H2       HT       0.417000       1.00800           0
     21362 TIP3     1343     TIP3     OH2      OT      -0.834000       15.9994           0
     21363 TIP3     1343     TIP3     H1       HT       0.417000       1.00800           0
     21364 TIP3     1343     TIP3     H2       HT       0.417000       1.00800           0
     21365 TIP3     1344     TIP3     OH2      OT      -0.834000       15.9994           0
     21366 TIP3     1344     TIP3     H1       HT       0.417000       1.00800           0
     21367 TIP3     1344     TIP3     H2       HT       0.417000       1.00800           0
     21368 TIP3     1345     TIP3     OH2      OT      -0.834000       15.9994           0
     21369 TIP3     1345     TIP3     H1       HT       0.417000       1.00800           0
     21370 TIP3     1345     TIP3     H2       HT       0.417000       1.00800           0
     21371 TIP3     1346     TIP3     OH2      OT      -0.834000       15.9994           0
     21372 TIP3     1346     TIP3     H1       HT       0.417000       1.00800           0
     21373 TIP3     1346     TIP3     H2       HT       0.417000       1.00800           0
     21374 TIP3     1347     TIP3     OH2      OT      -0.834000       15.9994           0
     21375 TIP3     1347     TIP3     H1       HT       0.417000       1.00800           0
     21376 TIP3     1347     TIP3     H2       HT       0.417000       1.00800           0
     21377 TIP3     1348     TIP3     OH2      OT      -0.834000       15.9994           0
     21378 TIP3     1348     TIP3     H1       HT       0.417000       1.00800           0
     21379 TIP3     1348     TIP3     H2       HT       0.417000       1.00800           0
     21380 TIP3     1349     TIP3     OH2      OT      -0.834000       15.9994           0
     21381 TIP3     1349     TIP3     H1       HT       0.417000       1.00800           0
     21382 TIP3     1349     TIP3     H2       HT       0.417000       1.00800           0
     21383 TIP3     1350     TIP3     OH2      OT      -0.834000       15.9994           0
     21384 TIP3     1350     TIP3     H1       HT       0.417000       1.00800           0
     21385 TIP3     1350     TIP3     H2       HT       0.417000       1.00800           0
     21386 TIP3     1351     TIP3     OH2      OT      -0.834000       15.9994           0
     21387 TIP3     1351     TIP3     H1       HT       0.417000       1.00800           0
     21388 TIP3     1351     TIP3     H2       HT       0.417000       1.00800           0
     21389 TIP3     1352     TIP3     OH2      OT      -0.834000       15.9994           0
     21390 TIP3     1352     TIP3     H1       HT       0.417000       1.00800           0
     21391 TIP3     1352     TIP3     H2       HT       0.417000       1.00800           0
     21392 TIP3     1353     TIP3     OH2      OT      -0.834000       15.9994           0
     21393 TIP3     1353     TIP3     H1       HT       0.417000       1.00800           0
     21394 TIP3     1353     TIP3     H2       HT       0.417000       1.00800           0
     21395 TIP3     1354     TIP3     OH2      OT      -0.834000       15.9994           0
     21396 TIP3     1354     TIP3     H1       HT       0.417000       1.00800           0
     21397 TIP3     1354     TIP3     H2       HT       0.417000       1.00800           0
     21398 TIP3     1355     TIP3     OH2      OT      -0.834000       15.9994           0
     21399 TIP3     1355     TIP3     H1       HT       0.417000       1.00800           0
     21400 TIP3     1355     TIP3     H2       HT       0.417000       1.00800           0
     21401 TIP3     1356     TIP3     OH2      OT      -0.834000       15.9994           0
     21402 TIP3     1356     TIP3     H1       HT       0.417000       1.00800           0
     21403 TIP3     1356     TIP3     H2       HT       0.417000       1.00800           0
     21404 TIP3     1357     TIP3     OH2      OT      -0.834000       15.9994           0
     21405 TIP3     1357     TIP3     H1       HT       0.417000       1.00800           0
     21406 TIP3     1357     TIP3     H2       HT       0.417000       1.00800           0
     21407 TIP3     1358     TIP3     OH2      OT      -0.834000       15.9994           0
     21408 TIP3     1358     TIP3     H1       HT       0.417000       1.00800           0
     21409 TIP3     1358     TIP3     H2       HT       0.417000       1.00800           0
     21410 TIP3     1359     TIP3     OH2      OT      -0.834000       15.9994           0
     21411 TIP3     1359     TIP3     H1       HT       0.417000       1.00800           0
     21412 TIP3     1359     TIP3     H2       HT       0.417000       1.00800           0
     21413 TIP3     1360     TIP3     OH2      OT      -0.834000       15.9994           0
     21414 TIP3     1360     TIP3     H1       HT       0.417000       1.00800           0
     21415 TIP3     1360     TIP3     H2       HT       0.417000       1.00800           0
     21416 TIP3     1361     TIP3     OH2      OT      -0.834000       15.9994           0
     21417 TIP3     1361     TIP3     H1       HT       0.417000       1.00800           0
     21418 TIP3     1361     TIP3     H2       HT       0.417000       1.00800           0
     21419 TIP3     1362     TIP3     OH2      OT      -0.834000       15.9994           0
     21420 TIP3     1362     TIP3     H1       HT       0.417000       1.00800           0
     21421 TIP3     1362     TIP3     H2       HT       0.417000       1.00800           0
     21422 TIP3     1363     TIP3     OH2      OT      -0.834000       15.9994           0
     21423 TIP3     1363     TIP3     H1       HT       0.417000       1.00800           0
     21424 TIP3     1363     TIP3     H2       HT       0.417000       1.00800           0
     21425 TIP3     1364     TIP3     OH2      OT      -0.834000       15.9994           0
     21426 TIP3     1364     TIP3     H1       HT       0.417000       1.00800           0
     21427 TIP3     1364     TIP3     H2       HT       0.417000       1.00800           0
     21428 TIP3     1365     TIP3     OH2      OT      -0.834000       15.9994           0
     21429 TIP3     1365     TIP3     H1       HT       0.417000       1.00800           0
     21430 TIP3     1365     TIP3     H2       HT       0.417000       1.00800           0
     21431 TIP3     1366     TIP3     OH2      OT      -0.834000       15.9994           0
     21432 TIP3     1366     TIP3     H1       HT       0.417000       1.00800           0
     21433 TIP3     1366     TIP3     H2       HT       0.417000       1.00800           0
     21434 TIP3     1367     TIP3     OH2      OT      -0.834000       15.9994           0
     21435 TIP3     1367     TIP3     H1       HT       0.417000       1.00800           0
     21436 TIP3     1367     TIP3     H2       HT       0.417000       1.00800           0
     21437 TIP3     1368     TIP3     OH2      OT      -0.834000       15.9994           0
     21438 TIP3     1368     TIP3     H1       HT       0.417000       1.00800           0
     21439 TIP3     1368     TIP3     H2       HT       0.417000       1.00800           0
     21440 TIP3     1369     TIP3     OH2      OT      -0.834000       15.9994           0
     21441 TIP3     1369     TIP3     H1       HT       0.417000       1.00800           0
     21442 TIP3     1369     TIP3     H2       HT       0.417000       1.00800           0
     21443 TIP3     1370     TIP3     OH2      OT      -0.834000       15.9994           0
     21444 TIP3     1370     TIP3     H1       HT       0.417000       1.00800           0
     21445 TIP3     1370     TIP3     H2       HT       0.417000       1.00800           0
     21446 TIP3     1371     TIP3     OH2      OT      -0.834000       15.9994           0
     21447 TIP3     1371     TIP3     H1       HT       0.417000       1.00800           0
     21448 TIP3     1371     TIP3     H2       HT       0.417000       1.00800           0
     21449 TIP3     1372     TIP3     OH2      OT      -0.834000       15.9994           0
     21450 TIP3     1372     TIP3     H1       HT       0.417000       1.00800           0
     21451 TIP3     1372     TIP3     H2       HT       0.417000       1.00800           0
     21452 TIP3     1373     TIP3     OH2      OT      -0.834000       15.9994           0
     21453 TIP3     1373     TIP3     H1       HT       0.417000       1.00800           0
     21454 TIP3     1373     TIP3     H2       HT       0.417000       1.00800           0
     21455 TIP3     1374     TIP3     OH2      OT      -0.834000       15.9994           0
     21456 TIP3     1374     TIP3     H1       HT       0.417000       1.00800           0
     21457 TIP3     1374     TIP3     H2       HT       0.417000       1.00800           0
     21458 TIP3     1375     TIP3     OH2      OT      -0.834000       15.9994           0
     21459 TIP3     1375     TIP3     H1       HT       0.417000       1.00800           0
     21460 TIP3     1375     TIP3     H2       HT       0.417000       1.00800           0
     21461 TIP3     1376     TIP3     OH2      OT      -0.834000       15.9994           0
     21462 TIP3     1376     TIP3     H1       HT       0.417000       1.00800           0
     21463 TIP3     1376     TIP3     H2       HT       0.417000       1.00800           0
     21464 TIP3     1377     TIP3     OH2      OT      -0.834000       15.9994           0
     21465 TIP3     1377     TIP3     H1       HT       0.417000       1.00800           0
     21466 TIP3     1377     TIP3     H2       HT       0.417000       1.00800           0
     21467 TIP3     1378     TIP3     OH2      OT      -0.834000       15.9994           0
     21468 TIP3     1378     TIP3     H1       HT       0.417000       1.00800           0
     21469 TIP3     1378     TIP3     H2       HT       0.417000       1.00800           0
     21470 TIP3     1379     TIP3     OH2      OT      -0.834000       15.9994           0
     21471 TIP3     1379     TIP3     H1       HT       0.417000       1.00800           0
     21472 TIP3     1379     TIP3     H2       HT       0.417000       1.00800           0
     21473 TIP3     1380     TIP3     OH2      OT      -0.834000       15.9994           0
     21474 TIP3     1380     TIP3     H1       HT       0.417000       1.00800           0
     21475 TIP3     1380     TIP3     H2       HT       0.417000       1.00800           0
     21476 TIP3     1381     TIP3     OH2      OT      -0.834000       15.9994           0
     21477 TIP3     1381     TIP3     H1       HT       0.417000       1.00800           0
     21478 TIP3     1381     TIP3     H2       HT       0.417000       1.00800           0
     21479 TIP3     1382     TIP3     OH2      OT      -0.834000       15.9994           0
     21480 TIP3     1382     TIP3     H1       HT       0.417000       1.00800           0
     21481 TIP3     1382     TIP3     H2       HT       0.417000       1.00800           0
     21482 TIP3     1383     TIP3     OH2      OT      -0.834000       15.9994           0
     21483 TIP3     1383     TIP3     H1       HT       0.417000       1.00800           0
     21484 TIP3     1383     TIP3     H2       HT       0.417000       1.00800           0
     21485 TIP3     1384     TIP3     OH2      OT      -0.834000       15.9994           0
     21486 TIP3     1384     TIP3     H1       HT       0.417000       1.00800           0
     21487 TIP3     1384     TIP3     H2       HT       0.417000       1.00800           0
     21488 TIP3     1385     TIP3     OH2      OT      -0.834000       15.9994           0
     21489 TIP3     1385     TIP3     H1       HT       0.417000       1.00800           0
     21490 TIP3     1385     TIP3     H2       HT       0.417000       1.00800           0
     21491 TIP3     1386     TIP3     OH2      OT      -0.834000       15.9994           0
     21492 TIP3     1386     TIP3     H1       HT       0.417000       1.00800           0
     21493 TIP3     1386     TIP3     H2       HT       0.417000       1.00800           0
     21494 TIP3     1387     TIP3     OH2      OT      -0.834000       15.9994           0
     21495 TIP3     1387     TIP3     H1       HT       0.417000       1.00800           0
     21496 TIP3     1387     TIP3     H2       HT       0.417000       1.00800           0
     21497 TIP3     1388     TIP3     OH2      OT      -0.834000       15.9994           0
     21498 TIP3     1388     TIP3     H1       HT       0.417000       1.00800           0
     21499 TIP3     1388     TIP3     H2       HT       0.417000       1.00800           0
     21500 TIP3     1389     TIP3     OH2      OT      -0.834000       15.9994           0
     21501 TIP3     1389     TIP3     H1       HT       0.417000       1.00800           0
     21502 TIP3     1389     TIP3     H2       HT       0.417000       1.00800           0
     21503 TIP3     1390     TIP3     OH2      OT      -0.834000       15.9994           0
     21504 TIP3     1390     TIP3     H1       HT       0.417000       1.00800           0
     21505 TIP3     1390     TIP3     H2       HT       0.417000       1.00800           0
     21506 TIP3     1391     TIP3     OH2      OT      -0.834000       15.9994           0
     21507 TIP3     1391     TIP3     H1       HT       0.417000       1.00800           0
     21508 TIP3     1391     TIP3     H2       HT       0.417000       1.00800           0
     21509 TIP3     1392     TIP3     OH2      OT      -0.834000       15.9994           0
     21510 TIP3     1392     TIP3     H1       HT       0.417000       1.00800           0
     21511 TIP3     1392     TIP3     H2       HT       0.417000       1.00800           0
     21512 TIP3     1393     TIP3     OH2      OT      -0.834000       15.9994           0
     21513 TIP3     1393     TIP3     H1       HT       0.417000       1.00800           0
     21514 TIP3     1393     TIP3     H2       HT       0.417000       1.00800           0
     21515 TIP3     1394     TIP3     OH2      OT      -0.834000       15.9994           0
     21516 TIP3     1394     TIP3     H1       HT       0.417000       1.00800           0
     21517 TIP3     1394     TIP3     H2       HT       0.417000       1.00800           0
     21518 TIP3     1395     TIP3     OH2      OT      -0.834000       15.9994           0
     21519 TIP3     1395     TIP3     H1       HT       0.417000       1.00800           0
     21520 TIP3     1395     TIP3     H2       HT       0.417000       1.00800           0
     21521 TIP3     1396     TIP3     OH2      OT      -0.834000       15.9994           0
     21522 TIP3     1396     TIP3     H1       HT       0.417000       1.00800           0
     21523 TIP3     1396     TIP3     H2       HT       0.417000       1.00800           0
     21524 TIP3     1397     TIP3     OH2      OT      -0.834000       15.9994           0
     21525 TIP3     1397     TIP3     H1       HT       0.417000       1.00800           0
     21526 TIP3     1397     TIP3     H2       HT       0.417000       1.00800           0
     21527 TIP3     1398     TIP3     OH2      OT      -0.834000       15.9994           0
     21528 TIP3     1398     TIP3     H1       HT       0.417000       1.00800           0
     21529 TIP3     1398     TIP3     H2       HT       0.417000       1.00800           0
     21530 TIP3     1399     TIP3     OH2      OT      -0.834000       15.9994           0
     21531 TIP3     1399     TIP3     H1       HT       0.417000       1.00800           0
     21532 TIP3     1399     TIP3     H2       HT       0.417000       1.00800           0
     21533 TIP3     1400     TIP3     OH2      OT      -0.834000       15.9994           0
     21534 TIP3     1400     TIP3     H1       HT       0.417000       1.00800           0
     21535 TIP3     1400     TIP3     H2       HT       0.417000       1.00800           0
     21536 TIP3     1401     TIP3     OH2      OT      -0.834000       15.9994           0
     21537 TIP3     1401     TIP3     H1       HT       0.417000       1.00800           0
     21538 TIP3     1401     TIP3     H2       HT       0.417000       1.00800           0
     21539 TIP3     1402     TIP3     OH2      OT      -0.834000       15.9994           0
     21540 TIP3     1402     TIP3     H1       HT       0.417000       1.00800           0
     21541 TIP3     1402     TIP3     H2       HT       0.417000       1.00800           0
     21542 TIP3     1403     TIP3     OH2      OT      -0.834000       15.9994           0
     21543 TIP3     1403     TIP3     H1       HT       0.417000       1.00800           0
     21544 TIP3     1403     TIP3     H2       HT       0.417000       1.00800           0
     21545 TIP3     1404     TIP3     OH2      OT      -0.834000       15.9994           0
     21546 TIP3     1404     TIP3     H1       HT       0.417000       1.00800           0
     21547 TIP3     1404     TIP3     H2       HT       0.417000       1.00800           0
     21548 TIP3     1405     TIP3     OH2      OT      -0.834000       15.9994           0
     21549 TIP3     1405     TIP3     H1       HT       0.417000       1.00800           0
     21550 TIP3     1405     TIP3     H2       HT       0.417000       1.00800           0
     21551 TIP3     1406     TIP3     OH2      OT      -0.834000       15.9994           0
     21552 TIP3     1406     TIP3     H1       HT       0.417000       1.00800           0
     21553 TIP3     1406     TIP3     H2       HT       0.417000       1.00800           0
     21554 TIP3     1407     TIP3     OH2      OT      -0.834000       15.9994           0
     21555 TIP3     1407     TIP3     H1       HT       0.417000       1.00800           0
     21556 TIP3     1407     TIP3     H2       HT       0.417000       1.00800           0
     21557 TIP3     1408     TIP3     OH2      OT      -0.834000       15.9994           0
     21558 TIP3     1408     TIP3     H1       HT       0.417000       1.00800           0
     21559 TIP3     1408     TIP3     H2       HT       0.417000       1.00800           0
     21560 TIP3     1409     TIP3     OH2      OT      -0.834000       15.9994           0
     21561 TIP3     1409     TIP3     H1       HT       0.417000       1.00800           0
     21562 TIP3     1409     TIP3     H2       HT       0.417000       1.00800           0
     21563 TIP3     1410     TIP3     OH2      OT      -0.834000       15.9994           0
     21564 TIP3     1410     TIP3     H1       HT       0.417000       1.00800           0
     21565 TIP3     1410     TIP3     H2       HT       0.417000       1.00800           0
     21566 TIP3     1411     TIP3     OH2      OT      -0.834000       15.9994           0
     21567 TIP3     1411     TIP3     H1       HT       0.417000       1.00800           0
     21568 TIP3     1411     TIP3     H2       HT       0.417000       1.00800           0
     21569 TIP3     1412     TIP3     OH2      OT      -0.834000       15.9994           0
     21570 TIP3     1412     TIP3     H1       HT       0.417000       1.00800           0
     21571 TIP3     1412     TIP3     H2       HT       0.417000       1.00800           0
     21572 TIP3     1413     TIP3     OH2      OT      -0.834000       15.9994           0
     21573 TIP3     1413     TIP3     H1       HT       0.417000       1.00800           0
     21574 TIP3     1413     TIP3     H2       HT       0.417000       1.00800           0
     21575 TIP3     1414     TIP3     OH2      OT      -0.834000       15.9994           0
     21576 TIP3     1414     TIP3     H1       HT       0.417000       1.00800           0
     21577 TIP3     1414     TIP3     H2       HT       0.417000       1.00800           0
     21578 TIP3     1415     TIP3     OH2      OT      -0.834000       15.9994           0
     21579 TIP3     1415     TIP3     H1       HT       0.417000       1.00800           0
     21580 TIP3     1415     TIP3     H2       HT       0.417000       1.00800           0
     21581 TIP3     1416     TIP3     OH2      OT      -0.834000       15.9994           0
     21582 TIP3     1416     TIP3     H1       HT       0.417000       1.00800           0
     21583 TIP3     1416     TIP3     H2       HT       0.417000       1.00800           0
     21584 TIP3     1417     TIP3     OH2      OT      -0.834000       15.9994           0
     21585 TIP3     1417     TIP3     H1       HT       0.417000       1.00800           0
     21586 TIP3     1417     TIP3     H2       HT       0.417000       1.00800           0
     21587 TIP3     1418     TIP3     OH2      OT      -0.834000       15.9994           0
     21588 TIP3     1418     TIP3     H1       HT       0.417000       1.00800           0
     21589 TIP3     1418     TIP3     H2       HT       0.417000       1.00800           0
     21590 TIP3     1419     TIP3     OH2      OT      -0.834000       15.9994           0
     21591 TIP3     1419     TIP3     H1       HT       0.417000       1.00800           0
     21592 TIP3     1419     TIP3     H2       HT       0.417000       1.00800           0
     21593 TIP3     1420     TIP3     OH2      OT      -0.834000       15.9994           0
     21594 TIP3     1420     TIP3     H1       HT       0.417000       1.00800           0
     21595 TIP3     1420     TIP3     H2       HT       0.417000       1.00800           0
     21596 TIP3     1421     TIP3     OH2      OT      -0.834000       15.9994           0
     21597 TIP3     1421     TIP3     H1       HT       0.417000       1.00800           0
     21598 TIP3     1421     TIP3     H2       HT       0.417000       1.00800           0
     21599 TIP3     1422     TIP3     OH2      OT      -0.834000       15.9994           0
     21600 TIP3     1422     TIP3     H1       HT       0.417000       1.00800           0
     21601 TIP3     1422     TIP3     H2       HT       0.417000       1.00800           0
     21602 TIP3     1423     TIP3     OH2      OT      -0.834000       15.9994           0
     21603 TIP3     1423     TIP3     H1       HT       0.417000       1.00800           0
     21604 TIP3     1423     TIP3     H2       HT       0.417000       1.00800           0
     21605 TIP3     1424     TIP3     OH2      OT      -0.834000       15.9994           0
     21606 TIP3     1424     TIP3     H1       HT       0.417000       1.00800           0
     21607 TIP3     1424     TIP3     H2       HT       0.417000       1.00800           0
     21608 TIP3     1425     TIP3     OH2      OT      -0.834000       15.9994           0
     21609 TIP3     1425     TIP3     H1       HT       0.417000       1.00800           0
     21610 TIP3     1425     TIP3     H2       HT       0.417000       1.00800           0
     21611 TIP3     1426     TIP3     OH2      OT      -0.834000       15.9994           0
     21612 TIP3     1426     TIP3     H1       HT       0.417000       1.00800           0
     21613 TIP3     1426     TIP3     H2       HT       0.417000       1.00800           0
     21614 TIP3     1427     TIP3     OH2      OT      -0.834000       15.9994           0
     21615 TIP3     1427     TIP3     H1       HT       0.417000       1.00800           0
     21616 TIP3     1427     TIP3     H2       HT       0.417000       1.00800           0
     21617 TIP3     1428     TIP3     OH2      OT      -0.834000       15.9994           0
     21618 TIP3     1428     TIP3     H1       HT       0.417000       1.00800           0
     21619 TIP3     1428     TIP3     H2       HT       0.417000       1.00800           0
     21620 TIP3     1429     TIP3     OH2      OT      -0.834000       15.9994           0
     21621 TIP3     1429     TIP3     H1       HT       0.417000       1.00800           0
     21622 TIP3     1429     TIP3     H2       HT       0.417000       1.00800           0
     21623 TIP3     1430     TIP3     OH2      OT      -0.834000       15.9994           0
     21624 TIP3     1430     TIP3     H1       HT       0.417000       1.00800           0
     21625 TIP3     1430     TIP3     H2       HT       0.417000       1.00800           0
     21626 TIP3     1431     TIP3     OH2      OT      -0.834000       15.9994           0
     21627 TIP3     1431     TIP3     H1       HT       0.417000       1.00800           0
     21628 TIP3     1431     TIP3     H2       HT       0.417000       1.00800           0
     21629 TIP3     1432     TIP3     OH2      OT      -0.834000       15.9994           0
     21630 TIP3     1432     TIP3     H1       HT       0.417000       1.00800           0
     21631 TIP3     1432     TIP3     H2       HT       0.417000       1.00800           0
     21632 TIP3     1433     TIP3     OH2      OT      -0.834000       15.9994           0
     21633 TIP3     1433     TIP3     H1       HT       0.417000       1.00800           0
     21634 TIP3     1433     TIP3     H2       HT       0.417000       1.00800           0
     21635 TIP3     1434     TIP3     OH2      OT      -0.834000       15.9994           0
     21636 TIP3     1434     TIP3     H1       HT       0.417000       1.00800           0
     21637 TIP3     1434     TIP3     H2       HT       0.417000       1.00800           0
     21638 TIP3     1435     TIP3     OH2      OT      -0.834000       15.9994           0
     21639 TIP3     1435     TIP3     H1       HT       0.417000       1.00800           0
     21640 TIP3     1435     TIP3     H2       HT       0.417000       1.00800           0
     21641 TIP3     1436     TIP3     OH2      OT      -0.834000       15.9994           0
     21642 TIP3     1436     TIP3     H1       HT       0.417000       1.00800           0
     21643 TIP3     1436     TIP3     H2       HT       0.417000       1.00800           0
     21644 TIP3     1437     TIP3     OH2      OT      -0.834000       15.9994           0
     21645 TIP3     1437     TIP3     H1       HT       0.417000       1.00800           0
     21646 TIP3     1437     TIP3     H2       HT       0.417000       1.00800           0
     21647 TIP3     1438     TIP3     OH2      OT      -0.834000       15.9994           0
     21648 TIP3     1438     TIP3     H1       HT       0.417000       1.00800           0
     21649 TIP3     1438     TIP3     H2       HT       0.417000       1.00800           0
     21650 TIP3     1439     TIP3     OH2      OT      -0.834000       15.9994           0
     21651 TIP3     1439     TIP3     H1       HT       0.417000       1.00800           0
     21652 TIP3     1439     TIP3     H2       HT       0.417000       1.00800           0
     21653 TIP3     1440     TIP3     OH2      OT      -0.834000       15.9994           0
     21654 TIP3     1440     TIP3     H1       HT       0.417000       1.00800           0
     21655 TIP3     1440     TIP3     H2       HT       0.417000       1.00800           0
     21656 TIP3     1441     TIP3     OH2      OT      -0.834000       15.9994           0
     21657 TIP3     1441     TIP3     H1       HT       0.417000       1.00800           0
     21658 TIP3     1441     TIP3     H2       HT       0.417000       1.00800           0
     21659 TIP3     1442     TIP3     OH2      OT      -0.834000       15.9994           0
     21660 TIP3     1442     TIP3     H1       HT       0.417000       1.00800           0
     21661 TIP3     1442     TIP3     H2       HT       0.417000       1.00800           0
     21662 TIP3     1443     TIP3     OH2      OT      -0.834000       15.9994           0
     21663 TIP3     1443     TIP3     H1       HT       0.417000       1.00800           0
     21664 TIP3     1443     TIP3     H2       HT       0.417000       1.00800           0
     21665 TIP3     1444     TIP3     OH2      OT      -0.834000       15.9994           0
     21666 TIP3     1444     TIP3     H1       HT       0.417000       1.00800           0
     21667 TIP3     1444     TIP3     H2       HT       0.417000       1.00800           0
     21668 TIP3     1445     TIP3     OH2      OT      -0.834000       15.9994           0
     21669 TIP3     1445     TIP3     H1       HT       0.417000       1.00800           0
     21670 TIP3     1445     TIP3     H2       HT       0.417000       1.00800           0
     21671 TIP3     1446     TIP3     OH2      OT      -0.834000       15.9994           0
     21672 TIP3     1446     TIP3     H1       HT       0.417000       1.00800           0
     21673 TIP3     1446     TIP3     H2       HT       0.417000       1.00800           0
     21674 TIP3     1447     TIP3     OH2      OT      -0.834000       15.9994           0
     21675 TIP3     1447     TIP3     H1       HT       0.417000       1.00800           0
     21676 TIP3     1447     TIP3     H2       HT       0.417000       1.00800           0
     21677 TIP3     1448     TIP3     OH2      OT      -0.834000       15.9994           0
     21678 TIP3     1448     TIP3     H1       HT       0.417000       1.00800           0
     21679 TIP3     1448     TIP3     H2       HT       0.417000       1.00800           0
     21680 TIP3     1449     TIP3     OH2      OT      -0.834000       15.9994           0
     21681 TIP3     1449     TIP3     H1       HT       0.417000       1.00800           0
     21682 TIP3     1449     TIP3     H2       HT       0.417000       1.00800           0
     21683 TIP3     1450     TIP3     OH2      OT      -0.834000       15.9994           0
     21684 TIP3     1450     TIP3     H1       HT       0.417000       1.00800           0
     21685 TIP3     1450     TIP3     H2       HT       0.417000       1.00800           0
     21686 TIP3     1451     TIP3     OH2      OT      -0.834000       15.9994           0
     21687 TIP3     1451     TIP3     H1       HT       0.417000       1.00800           0
     21688 TIP3     1451     TIP3     H2       HT       0.417000       1.00800           0
     21689 TIP3     1452     TIP3     OH2      OT      -0.834000       15.9994           0
     21690 TIP3     1452     TIP3     H1       HT       0.417000       1.00800           0
     21691 TIP3     1452     TIP3     H2       HT       0.417000       1.00800           0
     21692 TIP3     1453     TIP3     OH2      OT      -0.834000       15.9994           0
     21693 TIP3     1453     TIP3     H1       HT       0.417000       1.00800           0
     21694 TIP3     1453     TIP3     H2       HT       0.417000       1.00800           0
     21695 TIP3     1454     TIP3     OH2      OT      -0.834000       15.9994           0
     21696 TIP3     1454     TIP3     H1       HT       0.417000       1.00800           0
     21697 TIP3     1454     TIP3     H2       HT       0.417000       1.00800           0
     21698 TIP3     1455     TIP3     OH2      OT      -0.834000       15.9994           0
     21699 TIP3     1455     TIP3     H1       HT       0.417000       1.00800           0
     21700 TIP3     1455     TIP3     H2       HT       0.417000       1.00800           0
     21701 TIP3     1456     TIP3     OH2      OT      -0.834000       15.9994           0
     21702 TIP3     1456     TIP3     H1       HT       0.417000       1.00800           0
     21703 TIP3     1456     TIP3     H2       HT       0.417000       1.00800           0
     21704 TIP3     1457     TIP3     OH2      OT      -0.834000       15.9994           0
     21705 TIP3     1457     TIP3     H1       HT       0.417000       1.00800           0
     21706 TIP3     1457     TIP3     H2       HT       0.417000       1.00800           0
     21707 TIP3     1458     TIP3     OH2      OT      -0.834000       15.9994           0
     21708 TIP3     1458     TIP3     H1       HT       0.417000       1.00800           0
     21709 TIP3     1458     TIP3     H2       HT       0.417000       1.00800           0
     21710 TIP3     1459     TIP3     OH2      OT      -0.834000       15.9994           0
     21711 TIP3     1459     TIP3     H1       HT       0.417000       1.00800           0
     21712 TIP3     1459     TIP3     H2       HT       0.417000       1.00800           0
     21713 TIP3     1460     TIP3     OH2      OT      -0.834000       15.9994           0
     21714 TIP3     1460     TIP3     H1       HT       0.417000       1.00800           0
     21715 TIP3     1460     TIP3     H2       HT       0.417000       1.00800           0
     21716 TIP3     1461     TIP3     OH2      OT      -0.834000       15.9994           0
     21717 TIP3     1461     TIP3     H1       HT       0.417000       1.00800           0
     21718 TIP3     1461     TIP3     H2       HT       0.417000       1.00800           0
     21719 TIP3     1462     TIP3     OH2      OT      -0.834000       15.9994           0
     21720 TIP3     1462     TIP3     H1       HT       0.417000       1.00800           0
     21721 TIP3     1462     TIP3     H2       HT       0.417000       1.00800           0
     21722 TIP3     1463     TIP3     OH2      OT      -0.834000       15.9994           0
     21723 TIP3     1463     TIP3     H1       HT       0.417000       1.00800           0
     21724 TIP3     1463     TIP3     H2       HT       0.417000       1.00800           0
     21725 TIP3     1464     TIP3     OH2      OT      -0.834000       15.9994           0
     21726 TIP3     1464     TIP3     H1       HT       0.417000       1.00800           0
     21727 TIP3     1464     TIP3     H2       HT       0.417000       1.00800           0
     21728 TIP3     1465     TIP3     OH2      OT      -0.834000       15.9994           0
     21729 TIP3     1465     TIP3     H1       HT       0.417000       1.00800           0
     21730 TIP3     1465     TIP3     H2       HT       0.417000       1.00800           0
     21731 TIP3     1466     TIP3     OH2      OT      -0.834000       15.9994           0
     21732 TIP3     1466     TIP3     H1       HT       0.417000       1.00800           0
     21733 TIP3     1466     TIP3     H2       HT       0.417000       1.00800           0
     21734 TIP3     1467     TIP3     OH2      OT      -0.834000       15.9994           0
     21735 TIP3     1467     TIP3     H1       HT       0.417000       1.00800           0
     21736 TIP3     1467     TIP3     H2       HT       0.417000       1.00800           0
     21737 TIP3     1468     TIP3     OH2      OT      -0.834000       15.9994           0
     21738 TIP3     1468     TIP3     H1       HT       0.417000       1.00800           0
     21739 TIP3     1468     TIP3     H2       HT       0.417000       1.00800           0
     21740 TIP3     1469     TIP3     OH2      OT      -0.834000       15.9994           0
     21741 TIP3     1469     TIP3     H1       HT       0.417000       1.00800           0
     21742 TIP3     1469     TIP3     H2       HT       0.417000       1.00800           0
     21743 TIP3     1470     TIP3     OH2      OT      -0.834000       15.9994           0
     21744 TIP3     1470     TIP3     H1       HT       0.417000       1.00800           0
     21745 TIP3     1470     TIP3     H2       HT       0.417000       1.00800           0
     21746 TIP3     1471     TIP3     OH2      OT      -0.834000       15.9994           0
     21747 TIP3     1471     TIP3     H1       HT       0.417000       1.00800           0
     21748 TIP3     1471     TIP3     H2       HT       0.417000       1.00800           0
     21749 TIP3     1472     TIP3     OH2      OT      -0.834000       15.9994           0
     21750 TIP3     1472     TIP3     H1       HT       0.417000       1.00800           0
     21751 TIP3     1472     TIP3     H2       HT       0.417000       1.00800           0
     21752 TIP3     1473     TIP3     OH2      OT      -0.834000       15.9994           0
     21753 TIP3     1473     TIP3     H1       HT       0.417000       1.00800           0
     21754 TIP3     1473     TIP3     H2       HT       0.417000       1.00800           0
     21755 TIP3     1474     TIP3     OH2      OT      -0.834000       15.9994           0
     21756 TIP3     1474     TIP3     H1       HT       0.417000       1.00800           0
     21757 TIP3     1474     TIP3     H2       HT       0.417000       1.00800           0
     21758 TIP3     1475     TIP3     OH2      OT      -0.834000       15.9994           0
     21759 TIP3     1475     TIP3     H1       HT       0.417000       1.00800           0
     21760 TIP3     1475     TIP3     H2       HT       0.417000       1.00800           0
     21761 TIP3     1476     TIP3     OH2      OT      -0.834000       15.9994           0
     21762 TIP3     1476     TIP3     H1       HT       0.417000       1.00800           0
     21763 TIP3     1476     TIP3     H2       HT       0.417000       1.00800           0
     21764 TIP3     1477     TIP3     OH2      OT      -0.834000       15.9994           0
     21765 TIP3     1477     TIP3     H1       HT       0.417000       1.00800           0
     21766 TIP3     1477     TIP3     H2       HT       0.417000       1.00800           0
     21767 TIP3     1478     TIP3     OH2      OT      -0.834000       15.9994           0
     21768 TIP3     1478     TIP3     H1       HT       0.417000       1.00800           0
     21769 TIP3     1478     TIP3     H2       HT       0.417000       1.00800           0
     21770 TIP3     1479     TIP3     OH2      OT      -0.834000       15.9994           0
     21771 TIP3     1479     TIP3     H1       HT       0.417000       1.00800           0
     21772 TIP3     1479     TIP3     H2       HT       0.417000       1.00800           0
     21773 TIP3     1480     TIP3     OH2      OT      -0.834000       15.9994           0
     21774 TIP3     1480     TIP3     H1       HT       0.417000       1.00800           0
     21775 TIP3     1480     TIP3     H2       HT       0.417000       1.00800           0
     21776 TIP3     1481     TIP3     OH2      OT      -0.834000       15.9994           0
     21777 TIP3     1481     TIP3     H1       HT       0.417000       1.00800           0
     21778 TIP3     1481     TIP3     H2       HT       0.417000       1.00800           0
     21779 TIP3     1482     TIP3     OH2      OT      -0.834000       15.9994           0
     21780 TIP3     1482     TIP3     H1       HT       0.417000       1.00800           0
     21781 TIP3     1482     TIP3     H2       HT       0.417000       1.00800           0
     21782 TIP3     1483     TIP3     OH2      OT      -0.834000       15.9994           0
     21783 TIP3     1483     TIP3     H1       HT       0.417000       1.00800           0
     21784 TIP3     1483     TIP3     H2       HT       0.417000       1.00800           0
     21785 TIP3     1484     TIP3     OH2      OT      -0.834000       15.9994           0
     21786 TIP3     1484     TIP3     H1       HT       0.417000       1.00800           0
     21787 TIP3     1484     TIP3     H2       HT       0.417000       1.00800           0
     21788 TIP3     1485     TIP3     OH2      OT      -0.834000       15.9994           0
     21789 TIP3     1485     TIP3     H1       HT       0.417000       1.00800           0
     21790 TIP3     1485     TIP3     H2       HT       0.417000       1.00800           0
     21791 TIP3     1486     TIP3     OH2      OT      -0.834000       15.9994           0
     21792 TIP3     1486     TIP3     H1       HT       0.417000       1.00800           0
     21793 TIP3     1486     TIP3     H2       HT       0.417000       1.00800           0
     21794 TIP3     1487     TIP3     OH2      OT      -0.834000       15.9994           0
     21795 TIP3     1487     TIP3     H1       HT       0.417000       1.00800           0
     21796 TIP3     1487     TIP3     H2       HT       0.417000       1.00800           0
     21797 TIP3     1488     TIP3     OH2      OT      -0.834000       15.9994           0
     21798 TIP3     1488     TIP3     H1       HT       0.417000       1.00800           0
     21799 TIP3     1488     TIP3     H2       HT       0.417000       1.00800           0
     21800 TIP3     1489     TIP3     OH2      OT      -0.834000       15.9994           0
     21801 TIP3     1489     TIP3     H1       HT       0.417000       1.00800           0
     21802 TIP3     1489     TIP3     H2       HT       0.417000       1.00800           0
     21803 TIP3     1490     TIP3     OH2      OT      -0.834000       15.9994           0
     21804 TIP3     1490     TIP3     H1       HT       0.417000       1.00800           0
     21805 TIP3     1490     TIP3     H2       HT       0.417000       1.00800           0
     21806 TIP3     1491     TIP3     OH2      OT      -0.834000       15.9994           0
     21807 TIP3     1491     TIP3     H1       HT       0.417000       1.00800           0
     21808 TIP3     1491     TIP3     H2       HT       0.417000       1.00800           0
     21809 TIP3     1492     TIP3     OH2      OT      -0.834000       15.9994           0
     21810 TIP3     1492     TIP3     H1       HT       0.417000       1.00800           0
     21811 TIP3     1492     TIP3     H2       HT       0.417000       1.00800           0
     21812 TIP3     1493     TIP3     OH2      OT      -0.834000       15.9994           0
     21813 TIP3     1493     TIP3     H1       HT       0.417000       1.00800           0
     21814 TIP3     1493     TIP3     H2       HT       0.417000       1.00800           0
     21815 TIP3     1494     TIP3     OH2      OT      -0.834000       15.9994           0
     21816 TIP3     1494     TIP3     H1       HT       0.417000       1.00800           0
     21817 TIP3     1494     TIP3     H2       HT       0.417000       1.00800           0
     21818 TIP3     1495     TIP3     OH2      OT      -0.834000       15.9994           0
     21819 TIP3     1495     TIP3     H1       HT       0.417000       1.00800           0
     21820 TIP3     1495     TIP3     H2       HT       0.417000       1.00800           0
     21821 TIP3     1496     TIP3     OH2      OT      -0.834000       15.9994           0
     21822 TIP3     1496     TIP3     H1       HT       0.417000       1.00800           0
     21823 TIP3     1496     TIP3     H2       HT       0.417000       1.00800           0
     21824 TIP3     1497     TIP3     OH2      OT      -0.834000       15.9994           0
     21825 TIP3     1497     TIP3     H1       HT       0.417000       1.00800           0
     21826 TIP3     1497     TIP3     H2       HT       0.417000       1.00800           0
     21827 TIP3     1498     TIP3     OH2      OT      -0.834000       15.9994           0
     21828 TIP3     1498     TIP3     H1       HT       0.417000       1.00800           0
     21829 TIP3     1498     TIP3     H2       HT       0.417000       1.00800           0
     21830 TIP3     1499     TIP3     OH2      OT      -0.834000       15.9994           0
     21831 TIP3     1499     TIP3     H1       HT       0.417000       1.00800           0
     21832 TIP3     1499     TIP3     H2       HT       0.417000       1.00800           0
     21833 TIP3     1500     TIP3     OH2      OT      -0.834000       15.9994           0
     21834 TIP3     1500     TIP3     H1       HT       0.417000       1.00800           0
     21835 TIP3     1500     TIP3     H2       HT       0.417000       1.00800           0
     21836 TIP3     1501     TIP3     OH2      OT      -0.834000       15.9994           0
     21837 TIP3     1501     TIP3     H1       HT       0.417000       1.00800           0
     21838 TIP3     1501     TIP3     H2       HT       0.417000       1.00800           0
     21839 TIP3     1502     TIP3     OH2      OT      -0.834000       15.9994           0
     21840 TIP3     1502     TIP3     H1       HT       0.417000       1.00800           0
     21841 TIP3     1502     TIP3     H2       HT       0.417000       1.00800           0
     21842 TIP3     1503     TIP3     OH2      OT      -0.834000       15.9994           0
     21843 TIP3     1503     TIP3     H1       HT       0.417000       1.00800           0
     21844 TIP3     1503     TIP3     H2       HT       0.417000       1.00800           0
     21845 TIP3     1504     TIP3     OH2      OT      -0.834000       15.9994           0
     21846 TIP3     1504     TIP3     H1       HT       0.417000       1.00800           0
     21847 TIP3     1504     TIP3     H2       HT       0.417000       1.00800           0
     21848 TIP3     1505     TIP3     OH2      OT      -0.834000       15.9994           0
     21849 TIP3     1505     TIP3     H1       HT       0.417000       1.00800           0
     21850 TIP3     1505     TIP3     H2       HT       0.417000       1.00800           0
     21851 TIP3     1506     TIP3     OH2      OT      -0.834000       15.9994           0
     21852 TIP3     1506     TIP3     H1       HT       0.417000       1.00800           0
     21853 TIP3     1506     TIP3     H2       HT       0.417000       1.00800           0
     21854 TIP3     1507     TIP3     OH2      OT      -0.834000       15.9994           0
     21855 TIP3     1507     TIP3     H1       HT       0.417000       1.00800           0
     21856 TIP3     1507     TIP3     H2       HT       0.417000       1.00800           0
     21857 TIP3     1508     TIP3     OH2      OT      -0.834000       15.9994           0
     21858 TIP3     1508     TIP3     H1       HT       0.417000       1.00800           0
     21859 TIP3     1508     TIP3     H2       HT       0.417000       1.00800           0
     21860 TIP3     1509     TIP3     OH2      OT      -0.834000       15.9994           0
     21861 TIP3     1509     TIP3     H1       HT       0.417000       1.00800           0
     21862 TIP3     1509     TIP3     H2       HT       0.417000       1.00800           0
     21863 TIP3     1510     TIP3     OH2      OT      -0.834000       15.9994           0
     21864 TIP3     1510     TIP3     H1       HT       0.417000       1.00800           0
     21865 TIP3     1510     TIP3     H2       HT       0.417000       1.00800           0
     21866 TIP3     1511     TIP3     OH2      OT      -0.834000       15.9994           0
     21867 TIP3     1511     TIP3     H1       HT       0.417000       1.00800           0
     21868 TIP3     1511     TIP3     H2       HT       0.417000       1.00800           0
     21869 TIP3     1512     TIP3     OH2      OT      -0.834000       15.9994           0
     21870 TIP3     1512     TIP3     H1       HT       0.417000       1.00800           0
     21871 TIP3     1512     TIP3     H2       HT       0.417000       1.00800           0
     21872 TIP3     1513     TIP3     OH2      OT      -0.834000       15.9994           0
     21873 TIP3     1513     TIP3     H1       HT       0.417000       1.00800           0
     21874 TIP3     1513     TIP3     H2       HT       0.417000       1.00800           0
     21875 TIP3     1514     TIP3     OH2      OT      -0.834000       15.9994           0
     21876 TIP3     1514     TIP3     H1       HT       0.417000       1.00800           0
     21877 TIP3     1514     TIP3     H2       HT       0.417000       1.00800           0
     21878 TIP3     1515     TIP3     OH2      OT      -0.834000       15.9994           0
     21879 TIP3     1515     TIP3     H1       HT       0.417000       1.00800           0
     21880 TIP3     1515     TIP3     H2       HT       0.417000       1.00800           0
     21881 TIP3     1516     TIP3     OH2      OT      -0.834000       15.9994           0
     21882 TIP3     1516     TIP3     H1       HT       0.417000       1.00800           0
     21883 TIP3     1516     TIP3     H2       HT       0.417000       1.00800           0
     21884 TIP3     1517     TIP3     OH2      OT      -0.834000       15.9994           0
     21885 TIP3     1517     TIP3     H1       HT       0.417000       1.00800           0
     21886 TIP3     1517     TIP3     H2       HT       0.417000       1.00800           0
     21887 TIP3     1518     TIP3     OH2      OT      -0.834000       15.9994           0
     21888 TIP3     1518     TIP3     H1       HT       0.417000       1.00800           0
     21889 TIP3     1518     TIP3     H2       HT       0.417000       1.00800           0
     21890 TIP3     1519     TIP3     OH2      OT      -0.834000       15.9994           0
     21891 TIP3     1519     TIP3     H1       HT       0.417000       1.00800           0
     21892 TIP3     1519     TIP3     H2       HT       0.417000       1.00800           0
     21893 TIP3     1520     TIP3     OH2      OT      -0.834000       15.9994           0
     21894 TIP3     1520     TIP3     H1       HT       0.417000       1.00800           0
     21895 TIP3     1520     TIP3     H2       HT       0.417000       1.00800           0
     21896 TIP3     1521     TIP3     OH2      OT      -0.834000       15.9994           0
     21897 TIP3     1521     TIP3     H1       HT       0.417000       1.00800           0
     21898 TIP3     1521     TIP3     H2       HT       0.417000       1.00800           0
     21899 TIP3     1522     TIP3     OH2      OT      -0.834000       15.9994           0
     21900 TIP3     1522     TIP3     H1       HT       0.417000       1.00800           0
     21901 TIP3     1522     TIP3     H2       HT       0.417000       1.00800           0
     21902 TIP3     1523     TIP3     OH2      OT      -0.834000       15.9994           0
     21903 TIP3     1523     TIP3     H1       HT       0.417000       1.00800           0
     21904 TIP3     1523     TIP3     H2       HT       0.417000       1.00800           0
     21905 TIP3     1524     TIP3     OH2      OT      -0.834000       15.9994           0
     21906 TIP3     1524     TIP3     H1       HT       0.417000       1.00800           0
     21907 TIP3     1524     TIP3     H2       HT       0.417000       1.00800           0
     21908 TIP3     1525     TIP3     OH2      OT      -0.834000       15.9994           0
     21909 TIP3     1525     TIP3     H1       HT       0.417000       1.00800           0
     21910 TIP3     1525     TIP3     H2       HT       0.417000       1.00800           0
     21911 TIP3     1526     TIP3     OH2      OT      -0.834000       15.9994           0
     21912 TIP3     1526     TIP3     H1       HT       0.417000       1.00800           0
     21913 TIP3     1526     TIP3     H2       HT       0.417000       1.00800           0
     21914 TIP3     1527     TIP3     OH2      OT      -0.834000       15.9994           0
     21915 TIP3     1527     TIP3     H1       HT       0.417000       1.00800           0
     21916 TIP3     1527     TIP3     H2       HT       0.417000       1.00800           0
     21917 TIP3     1528     TIP3     OH2      OT      -0.834000       15.9994           0
     21918 TIP3     1528     TIP3     H1       HT       0.417000       1.00800           0
     21919 TIP3     1528     TIP3     H2       HT       0.417000       1.00800           0
     21920 TIP3     1529     TIP3     OH2      OT      -0.834000       15.9994           0
     21921 TIP3     1529     TIP3     H1       HT       0.417000       1.00800           0
     21922 TIP3     1529     TIP3     H2       HT       0.417000       1.00800           0
     21923 TIP3     1530     TIP3     OH2      OT      -0.834000       15.9994           0
     21924 TIP3     1530     TIP3     H1       HT       0.417000       1.00800           0
     21925 TIP3     1530     TIP3     H2       HT       0.417000       1.00800           0
     21926 TIP3     1531     TIP3     OH2      OT      -0.834000       15.9994           0
     21927 TIP3     1531     TIP3     H1       HT       0.417000       1.00800           0
     21928 TIP3     1531     TIP3     H2       HT       0.417000       1.00800           0
     21929 TIP3     1532     TIP3     OH2      OT      -0.834000       15.9994           0
     21930 TIP3     1532     TIP3     H1       HT       0.417000       1.00800           0
     21931 TIP3     1532     TIP3     H2       HT       0.417000       1.00800           0
     21932 TIP3     1533     TIP3     OH2      OT      -0.834000       15.9994           0
     21933 TIP3     1533     TIP3     H1       HT       0.417000       1.00800           0
     21934 TIP3     1533     TIP3     H2       HT       0.417000       1.00800           0
     21935 TIP3     1534     TIP3     OH2      OT      -0.834000       15.9994           0
     21936 TIP3     1534     TIP3     H1       HT       0.417000       1.00800           0
     21937 TIP3     1534     TIP3     H2       HT       0.417000       1.00800           0
     21938 TIP3     1535     TIP3     OH2      OT      -0.834000       15.9994           0
     21939 TIP3     1535     TIP3     H1       HT       0.417000       1.00800           0
     21940 TIP3     1535     TIP3     H2       HT       0.417000       1.00800           0
     21941 TIP3     1536     TIP3     OH2      OT      -0.834000       15.9994           0
     21942 TIP3     1536     TIP3     H1       HT       0.417000       1.00800           0
     21943 TIP3     1536     TIP3     H2       HT       0.417000       1.00800           0
     21944 TIP3     1537     TIP3     OH2      OT      -0.834000       15.9994           0
     21945 TIP3     1537     TIP3     H1       HT       0.417000       1.00800           0
     21946 TIP3     1537     TIP3     H2       HT       0.417000       1.00800           0
     21947 TIP3     1538     TIP3     OH2      OT      -0.834000       15.9994           0
     21948 TIP3     1538     TIP3     H1       HT       0.417000       1.00800           0
     21949 TIP3     1538     TIP3     H2       HT       0.417000       1.00800           0
     21950 TIP3     1539     TIP3     OH2      OT      -0.834000       15.9994           0
     21951 TIP3     1539     TIP3     H1       HT       0.417000       1.00800           0
     21952 TIP3     1539     TIP3     H2       HT       0.417000       1.00800           0
     21953 TIP3     1540     TIP3     OH2      OT      -0.834000       15.9994           0
     21954 TIP3     1540     TIP3     H1       HT       0.417000       1.00800           0
     21955 TIP3     1540     TIP3     H2       HT       0.417000       1.00800           0
     21956 TIP3     1541     TIP3     OH2      OT      -0.834000       15.9994           0
     21957 TIP3     1541     TIP3     H1       HT       0.417000       1.00800           0
     21958 TIP3     1541     TIP3     H2       HT       0.417000       1.00800           0
     21959 TIP3     1542     TIP3     OH2      OT      -0.834000       15.9994           0
     21960 TIP3     1542     TIP3     H1       HT       0.417000       1.00800           0
     21961 TIP3     1542     TIP3     H2       HT       0.417000       1.00800           0
     21962 TIP3     1543     TIP3     OH2      OT      -0.834000       15.9994           0
     21963 TIP3     1543     TIP3     H1       HT       0.417000       1.00800           0
     21964 TIP3     1543     TIP3     H2       HT       0.417000       1.00800           0
     21965 TIP3     1544     TIP3     OH2      OT      -0.834000       15.9994           0
     21966 TIP3     1544     TIP3     H1       HT       0.417000       1.00800           0
     21967 TIP3     1544     TIP3     H2       HT       0.417000       1.00800           0
     21968 TIP3     1545     TIP3     OH2      OT      -0.834000       15.9994           0
     21969 TIP3     1545     TIP3     H1       HT       0.417000       1.00800           0
     21970 TIP3     1545     TIP3     H2       HT       0.417000       1.00800           0
     21971 TIP3     1546     TIP3     OH2      OT      -0.834000       15.9994           0
     21972 TIP3     1546     TIP3     H1       HT       0.417000       1.00800           0
     21973 TIP3     1546     TIP3     H2       HT       0.417000       1.00800           0
     21974 TIP3     1547     TIP3     OH2      OT      -0.834000       15.9994           0
     21975 TIP3     1547     TIP3     H1       HT       0.417000       1.00800           0
     21976 TIP3     1547     TIP3     H2       HT       0.417000       1.00800           0
     21977 TIP3     1548     TIP3     OH2      OT      -0.834000       15.9994           0
     21978 TIP3     1548     TIP3     H1       HT       0.417000       1.00800           0
     21979 TIP3     1548     TIP3     H2       HT       0.417000       1.00800           0
     21980 TIP3     1549     TIP3     OH2      OT      -0.834000       15.9994           0
     21981 TIP3     1549     TIP3     H1       HT       0.417000       1.00800           0
     21982 TIP3     1549     TIP3     H2       HT       0.417000       1.00800           0
     21983 TIP3     1550     TIP3     OH2      OT      -0.834000       15.9994           0
     21984 TIP3     1550     TIP3     H1       HT       0.417000       1.00800           0
     21985 TIP3     1550     TIP3     H2       HT       0.417000       1.00800           0
     21986 TIP3     1551     TIP3     OH2      OT      -0.834000       15.9994           0
     21987 TIP3     1551     TIP3     H1       HT       0.417000       1.00800           0
     21988 TIP3     1551     TIP3     H2       HT       0.417000       1.00800           0
     21989 TIP3     1552     TIP3     OH2      OT      -0.834000       15.9994           0
     21990 TIP3     1552     TIP3     H1       HT       0.417000       1.00800           0
     21991 TIP3     1552     TIP3     H2       HT       0.417000       1.00800           0
     21992 TIP3     1553     TIP3     OH2      OT      -0.834000       15.9994           0
     21993 TIP3     1553     TIP3     H1       HT       0.417000       1.00800           0
     21994 TIP3     1553     TIP3     H2       HT       0.417000       1.00800           0
     21995 TIP3     1554     TIP3     OH2      OT      -0.834000       15.9994           0
     21996 TIP3     1554     TIP3     H1       HT       0.417000       1.00800           0
     21997 TIP3     1554     TIP3     H2       HT       0.417000       1.00800           0
     21998 TIP3     1555     TIP3     OH2      OT      -0.834000       15.9994           0
     21999 TIP3     1555     TIP3     H1       HT       0.417000       1.00800           0
     22000 TIP3     1555     TIP3     H2       HT       0.417000       1.00800           0
     22001 TIP3     1556     TIP3     OH2      OT      -0.834000       15.9994           0
     22002 TIP3     1556     TIP3     H1       HT       0.417000       1.00800           0
     22003 TIP3     1556     TIP3     H2       HT       0.417000       1.00800           0
     22004 TIP3     1557     TIP3     OH2      OT      -0.834000       15.9994           0
     22005 TIP3     1557     TIP3     H1       HT       0.417000       1.00800           0
     22006 TIP3     1557     TIP3     H2       HT       0.417000       1.00800           0
     22007 TIP3     1558     TIP3     OH2      OT      -0.834000       15.9994           0
     22008 TIP3     1558     TIP3     H1       HT       0.417000       1.00800           0
     22009 TIP3     1558     TIP3     H2       HT       0.417000       1.00800           0
     22010 TIP3     1559     TIP3     OH2      OT      -0.834000       15.9994           0
     22011 TIP3     1559     TIP3     H1       HT       0.417000       1.00800           0
     22012 TIP3     1559     TIP3     H2       HT       0.417000       1.00800           0
     22013 TIP3     1560     TIP3     OH2      OT      -0.834000       15.9994           0
     22014 TIP3     1560     TIP3     H1       HT       0.417000       1.00800           0
     22015 TIP3     1560     TIP3     H2       HT       0.417000       1.00800           0
     22016 TIP3     1561     TIP3     OH2      OT      -0.834000       15.9994           0
     22017 TIP3     1561     TIP3     H1       HT       0.417000       1.00800           0
     22018 TIP3     1561     TIP3     H2       HT       0.417000       1.00800           0
     22019 TIP3     1562     TIP3     OH2      OT      -0.834000       15.9994           0
     22020 TIP3     1562     TIP3     H1       HT       0.417000       1.00800           0
     22021 TIP3     1562     TIP3     H2       HT       0.417000       1.00800           0
     22022 TIP3     1563     TIP3     OH2      OT      -0.834000       15.9994           0
     22023 TIP3     1563     TIP3     H1       HT       0.417000       1.00800           0
     22024 TIP3     1563     TIP3     H2       HT       0.417000       1.00800           0
     22025 TIP3     1564     TIP3     OH2      OT      -0.834000       15.9994           0
     22026 TIP3     1564     TIP3     H1       HT       0.417000       1.00800           0
     22027 TIP3     1564     TIP3     H2       HT       0.417000       1.00800           0
     22028 TIP3     1565     TIP3     OH2      OT      -0.834000       15.9994           0
     22029 TIP3     1565     TIP3     H1       HT       0.417000       1.00800           0
     22030 TIP3     1565     TIP3     H2       HT       0.417000       1.00800           0
     22031 TIP3     1566     TIP3     OH2      OT      -0.834000       15.9994           0
     22032 TIP3     1566     TIP3     H1       HT       0.417000       1.00800           0
     22033 TIP3     1566     TIP3     H2       HT       0.417000       1.00800           0
     22034 TIP3     1567     TIP3     OH2      OT      -0.834000       15.9994           0
     22035 TIP3     1567     TIP3     H1       HT       0.417000       1.00800           0
     22036 TIP3     1567     TIP3     H2       HT       0.417000       1.00800           0
     22037 TIP3     1568     TIP3     OH2      OT      -0.834000       15.9994           0
     22038 TIP3     1568     TIP3     H1       HT       0.417000       1.00800           0
     22039 TIP3     1568     TIP3     H2       HT       0.417000       1.00800           0
     22040 TIP3     1569     TIP3     OH2      OT      -0.834000       15.9994           0
     22041 TIP3     1569     TIP3     H1       HT       0.417000       1.00800           0
     22042 TIP3     1569     TIP3     H2       HT       0.417000       1.00800           0
     22043 TIP3     1570     TIP3     OH2      OT      -0.834000       15.9994           0
     22044 TIP3     1570     TIP3     H1       HT       0.417000       1.00800           0
     22045 TIP3     1570     TIP3     H2       HT       0.417000       1.00800           0
     22046 TIP3     1571     TIP3     OH2      OT      -0.834000       15.9994           0
     22047 TIP3     1571     TIP3     H1       HT       0.417000       1.00800           0
     22048 TIP3     1571     TIP3     H2       HT       0.417000       1.00800           0
     22049 TIP3     1572     TIP3     OH2      OT      -0.834000       15.9994           0
     22050 TIP3     1572     TIP3     H1       HT       0.417000       1.00800           0
     22051 TIP3     1572     TIP3     H2       HT       0.417000       1.00800           0
     22052 TIP3     1573     TIP3     OH2      OT      -0.834000       15.9994           0
     22053 TIP3     1573     TIP3     H1       HT       0.417000       1.00800           0
     22054 TIP3     1573     TIP3     H2       HT       0.417000       1.00800           0
     22055 TIP3     1574     TIP3     OH2      OT      -0.834000       15.9994           0
     22056 TIP3     1574     TIP3     H1       HT       0.417000       1.00800           0
     22057 TIP3     1574     TIP3     H2       HT       0.417000       1.00800           0
     22058 TIP3     1575     TIP3     OH2      OT      -0.834000       15.9994           0
     22059 TIP3     1575     TIP3     H1       HT       0.417000       1.00800           0
     22060 TIP3     1575     TIP3     H2       HT       0.417000       1.00800           0
     22061 TIP3     1576     TIP3     OH2      OT      -0.834000       15.9994           0
     22062 TIP3     1576     TIP3     H1       HT       0.417000       1.00800           0
     22063 TIP3     1576     TIP3     H2       HT       0.417000       1.00800           0
     22064 TIP3     1577     TIP3     OH2      OT      -0.834000       15.9994           0
     22065 TIP3     1577     TIP3     H1       HT       0.417000       1.00800           0
     22066 TIP3     1577     TIP3     H2       HT       0.417000       1.00800           0
     22067 TIP3     1578     TIP3     OH2      OT      -0.834000       15.9994           0
     22068 TIP3     1578     TIP3     H1       HT       0.417000       1.00800           0
     22069 TIP3     1578     TIP3     H2       HT       0.417000       1.00800           0
     22070 TIP3     1579     TIP3     OH2      OT      -0.834000       15.9994           0
     22071 TIP3     1579     TIP3     H1       HT       0.417000       1.00800           0
     22072 TIP3     1579     TIP3     H2       HT       0.417000       1.00800           0
     22073 TIP3     1580     TIP3     OH2      OT      -0.834000       15.9994           0
     22074 TIP3     1580     TIP3     H1       HT       0.417000       1.00800           0
     22075 TIP3     1580     TIP3     H2       HT       0.417000       1.00800           0
     22076 TIP3     1581     TIP3     OH2      OT      -0.834000       15.9994           0
     22077 TIP3     1581     TIP3     H1       HT       0.417000       1.00800           0
     22078 TIP3     1581     TIP3     H2       HT       0.417000       1.00800           0
     22079 TIP3     1582     TIP3     OH2      OT      -0.834000       15.9994           0
     22080 TIP3     1582     TIP3     H1       HT       0.417000       1.00800           0
     22081 TIP3     1582     TIP3     H2       HT       0.417000       1.00800           0
     22082 TIP3     1583     TIP3     OH2      OT      -0.834000       15.9994           0
     22083 TIP3     1583     TIP3     H1       HT       0.417000       1.00800           0
     22084 TIP3     1583     TIP3     H2       HT       0.417000       1.00800           0
     22085 TIP3     1584     TIP3     OH2      OT      -0.834000       15.9994           0
     22086 TIP3     1584     TIP3     H1       HT       0.417000       1.00800           0
     22087 TIP3     1584     TIP3     H2       HT       0.417000       1.00800           0
     22088 TIP3     1585     TIP3     OH2      OT      -0.834000       15.9994           0
     22089 TIP3     1585     TIP3     H1       HT       0.417000       1.00800           0
     22090 TIP3     1585     TIP3     H2       HT       0.417000       1.00800           0
     22091 TIP3     1586     TIP3     OH2      OT      -0.834000       15.9994           0
     22092 TIP3     1586     TIP3     H1       HT       0.417000       1.00800           0
     22093 TIP3     1586     TIP3     H2       HT       0.417000       1.00800           0
     22094 TIP3     1587     TIP3     OH2      OT      -0.834000       15.9994           0
     22095 TIP3     1587     TIP3     H1       HT       0.417000       1.00800           0
     22096 TIP3     1587     TIP3     H2       HT       0.417000       1.00800           0
     22097 TIP3     1588     TIP3     OH2      OT      -0.834000       15.9994           0
     22098 TIP3     1588     TIP3     H1       HT       0.417000       1.00800           0
     22099 TIP3     1588     TIP3     H2       HT       0.417000       1.00800           0
     22100 TIP3     1589     TIP3     OH2      OT      -0.834000       15.9994           0
     22101 TIP3     1589     TIP3     H1       HT       0.417000       1.00800           0
     22102 TIP3     1589     TIP3     H2       HT       0.417000       1.00800           0
     22103 TIP3     1590     TIP3     OH2      OT      -0.834000       15.9994           0
     22104 TIP3     1590     TIP3     H1       HT       0.417000       1.00800           0
     22105 TIP3     1590     TIP3     H2       HT       0.417000       1.00800           0
     22106 TIP3     1591     TIP3     OH2      OT      -0.834000       15.9994           0
     22107 TIP3     1591     TIP3     H1       HT       0.417000       1.00800           0
     22108 TIP3     1591     TIP3     H2       HT       0.417000       1.00800           0
     22109 TIP3     1592     TIP3     OH2      OT      -0.834000       15.9994           0
     22110 TIP3     1592     TIP3     H1       HT       0.417000       1.00800           0
     22111 TIP3     1592     TIP3     H2       HT       0.417000       1.00800           0
     22112 TIP3     1593     TIP3     OH2      OT      -0.834000       15.9994           0
     22113 TIP3     1593     TIP3     H1       HT       0.417000       1.00800           0
     22114 TIP3     1593     TIP3     H2       HT       0.417000       1.00800           0
     22115 TIP3     1594     TIP3     OH2      OT      -0.834000       15.9994           0
     22116 TIP3     1594     TIP3     H1       HT       0.417000       1.00800           0
     22117 TIP3     1594     TIP3     H2       HT       0.417000       1.00800           0
     22118 TIP3     1595     TIP3     OH2      OT      -0.834000       15.9994           0
     22119 TIP3     1595     TIP3     H1       HT       0.417000       1.00800           0
     22120 TIP3     1595     TIP3     H2       HT       0.417000       1.00800           0
     22121 TIP3     1596     TIP3     OH2      OT      -0.834000       15.9994           0
     22122 TIP3     1596     TIP3     H1       HT       0.417000       1.00800           0
     22123 TIP3     1596     TIP3     H2       HT       0.417000       1.00800           0
     22124 TIP3     1597     TIP3     OH2      OT      -0.834000       15.9994           0
     22125 TIP3     1597     TIP3     H1       HT       0.417000       1.00800           0
     22126 TIP3     1597     TIP3     H2       HT       0.417000       1.00800           0
     22127 TIP3     1598     TIP3     OH2      OT      -0.834000       15.9994           0
     22128 TIP3     1598     TIP3     H1       HT       0.417000       1.00800           0
     22129 TIP3     1598     TIP3     H2       HT       0.417000       1.00800           0
     22130 TIP3     1599     TIP3     OH2      OT      -0.834000       15.9994           0
     22131 TIP3     1599     TIP3     H1       HT       0.417000       1.00800           0
     22132 TIP3     1599     TIP3     H2       HT       0.417000       1.00800           0
     22133 TIP3     1600     TIP3     OH2      OT      -0.834000       15.9994           0
     22134 TIP3     1600     TIP3     H1       HT       0.417000       1.00800           0
     22135 TIP3     1600     TIP3     H2       HT       0.417000       1.00800           0
     22136 TIP3     1601     TIP3     OH2      OT      -0.834000       15.9994           0
     22137 TIP3     1601     TIP3     H1       HT       0.417000       1.00800           0
     22138 TIP3     1601     TIP3     H2       HT       0.417000       1.00800           0
     22139 TIP3     1602     TIP3     OH2      OT      -0.834000       15.9994           0
     22140 TIP3     1602     TIP3     H1       HT       0.417000       1.00800           0
     22141 TIP3     1602     TIP3     H2       HT       0.417000       1.00800           0
     22142 TIP3     1603     TIP3     OH2      OT      -0.834000       15.9994           0
     22143 TIP3     1603     TIP3     H1       HT       0.417000       1.00800           0
     22144 TIP3     1603     TIP3     H2       HT       0.417000       1.00800           0
     22145 TIP3     1604     TIP3     OH2      OT      -0.834000       15.9994           0
     22146 TIP3     1604     TIP3     H1       HT       0.417000       1.00800           0
     22147 TIP3     1604     TIP3     H2       HT       0.417000       1.00800           0
     22148 TIP3     1605     TIP3     OH2      OT      -0.834000       15.9994           0
     22149 TIP3     1605     TIP3     H1       HT       0.417000       1.00800           0
     22150 TIP3     1605     TIP3     H2       HT       0.417000       1.00800           0
     22151 TIP3     1606     TIP3     OH2      OT      -0.834000       15.9994           0
     22152 TIP3     1606     TIP3     H1       HT       0.417000       1.00800           0
     22153 TIP3     1606     TIP3     H2       HT       0.417000       1.00800           0
     22154 TIP3     1607     TIP3     OH2      OT      -0.834000       15.9994           0
     22155 TIP3     1607     TIP3     H1       HT       0.417000       1.00800           0
     22156 TIP3     1607     TIP3     H2       HT       0.417000       1.00800           0
     22157 TIP3     1608     TIP3     OH2      OT      -0.834000       15.9994           0
     22158 TIP3     1608     TIP3     H1       HT       0.417000       1.00800           0
     22159 TIP3     1608     TIP3     H2       HT       0.417000       1.00800           0
     22160 TIP3     1609     TIP3     OH2      OT      -0.834000       15.9994           0
     22161 TIP3     1609     TIP3     H1       HT       0.417000       1.00800           0
     22162 TIP3     1609     TIP3     H2       HT       0.417000       1.00800           0
     22163 TIP3     1610     TIP3     OH2      OT      -0.834000       15.9994           0
     22164 TIP3     1610     TIP3     H1       HT       0.417000       1.00800           0
     22165 TIP3     1610     TIP3     H2       HT       0.417000       1.00800           0
     22166 TIP3     1611     TIP3     OH2      OT      -0.834000       15.9994           0
     22167 TIP3     1611     TIP3     H1       HT       0.417000       1.00800           0
     22168 TIP3     1611     TIP3     H2       HT       0.417000       1.00800           0
     22169 TIP3     1612     TIP3     OH2      OT      -0.834000       15.9994           0
     22170 TIP3     1612     TIP3     H1       HT       0.417000       1.00800           0
     22171 TIP3     1612     TIP3     H2       HT       0.417000       1.00800           0
     22172 TIP3     1613     TIP3     OH2      OT      -0.834000       15.9994           0
     22173 TIP3     1613     TIP3     H1       HT       0.417000       1.00800           0
     22174 TIP3     1613     TIP3     H2       HT       0.417000       1.00800           0
     22175 TIP3     1614     TIP3     OH2      OT      -0.834000       15.9994           0
     22176 TIP3     1614     TIP3     H1       HT       0.417000       1.00800           0
     22177 TIP3     1614     TIP3     H2       HT       0.417000       1.00800           0
     22178 TIP3     1615     TIP3     OH2      OT      -0.834000       15.9994           0
     22179 TIP3     1615     TIP3     H1       HT       0.417000       1.00800           0
     22180 TIP3     1615     TIP3     H2       HT       0.417000       1.00800           0
     22181 TIP3     1616     TIP3     OH2      OT      -0.834000       15.9994           0
     22182 TIP3     1616     TIP3     H1       HT       0.417000       1.00800           0
     22183 TIP3     1616     TIP3     H2       HT       0.417000       1.00800           0
     22184 TIP3     1617     TIP3     OH2      OT      -0.834000       15.9994           0
     22185 TIP3     1617     TIP3     H1       HT       0.417000       1.00800           0
     22186 TIP3     1617     TIP3     H2       HT       0.417000       1.00800           0
     22187 TIP3     1618     TIP3     OH2      OT      -0.834000       15.9994           0
     22188 TIP3     1618     TIP3     H1       HT       0.417000       1.00800           0
     22189 TIP3     1618     TIP3     H2       HT       0.417000       1.00800           0
     22190 TIP3     1619     TIP3     OH2      OT      -0.834000       15.9994           0
     22191 TIP3     1619     TIP3     H1       HT       0.417000       1.00800           0
     22192 TIP3     1619     TIP3     H2       HT       0.417000       1.00800           0
     22193 TIP3     1620     TIP3     OH2      OT      -0.834000       15.9994           0
     22194 TIP3     1620     TIP3     H1       HT       0.417000       1.00800           0
     22195 TIP3     1620     TIP3     H2       HT       0.417000       1.00800           0
     22196 TIP3     1621     TIP3     OH2      OT      -0.834000       15.9994           0
     22197 TIP3     1621     TIP3     H1       HT       0.417000       1.00800           0
     22198 TIP3     1621     TIP3     H2       HT       0.417000       1.00800           0
     22199 TIP3     1622     TIP3     OH2      OT      -0.834000       15.9994           0
     22200 TIP3     1622     TIP3     H1       HT       0.417000       1.00800           0
     22201 TIP3     1622     TIP3     H2       HT       0.417000       1.00800           0
     22202 TIP3     1623     TIP3     OH2      OT      -0.834000       15.9994           0
     22203 TIP3     1623     TIP3     H1       HT       0.417000       1.00800           0
     22204 TIP3     1623     TIP3     H2       HT       0.417000       1.00800           0
     22205 TIP3     1624     TIP3     OH2      OT      -0.834000       15.9994           0
     22206 TIP3     1624     TIP3     H1       HT       0.417000       1.00800           0
     22207 TIP3     1624     TIP3     H2       HT       0.417000       1.00800           0
     22208 TIP3     1625     TIP3     OH2      OT      -0.834000       15.9994           0
     22209 TIP3     1625     TIP3     H1       HT       0.417000       1.00800           0
     22210 TIP3     1625     TIP3     H2       HT       0.417000       1.00800           0
     22211 TIP3     1626     TIP3     OH2      OT      -0.834000       15.9994           0
     22212 TIP3     1626     TIP3     H1       HT       0.417000       1.00800           0
     22213 TIP3     1626     TIP3     H2       HT       0.417000       1.00800           0
     22214 TIP3     1627     TIP3     OH2      OT      -0.834000       15.9994           0
     22215 TIP3     1627     TIP3     H1       HT       0.417000       1.00800           0
     22216 TIP3     1627     TIP3     H2       HT       0.417000       1.00800           0
     22217 TIP3     1628     TIP3     OH2      OT      -0.834000       15.9994           0
     22218 TIP3     1628     TIP3     H1       HT       0.417000       1.00800           0
     22219 TIP3     1628     TIP3     H2       HT       0.417000       1.00800           0
     22220 TIP3     1629     TIP3     OH2      OT      -0.834000       15.9994           0
     22221 TIP3     1629     TIP3     H1       HT       0.417000       1.00800           0
     22222 TIP3     1629     TIP3     H2       HT       0.417000       1.00800           0
     22223 TIP3     1630     TIP3     OH2      OT      -0.834000       15.9994           0
     22224 TIP3     1630     TIP3     H1       HT       0.417000       1.00800           0
     22225 TIP3     1630     TIP3     H2       HT       0.417000       1.00800           0
     22226 TIP3     1631     TIP3     OH2      OT      -0.834000       15.9994           0
     22227 TIP3     1631     TIP3     H1       HT       0.417000       1.00800           0
     22228 TIP3     1631     TIP3     H2       HT       0.417000       1.00800           0
     22229 TIP3     1632     TIP3     OH2      OT      -0.834000       15.9994           0
     22230 TIP3     1632     TIP3     H1       HT       0.417000       1.00800           0
     22231 TIP3     1632     TIP3     H2       HT       0.417000       1.00800           0
     22232 TIP3     1633     TIP3     OH2      OT      -0.834000       15.9994           0
     22233 TIP3     1633     TIP3     H1       HT       0.417000       1.00800           0
     22234 TIP3     1633     TIP3     H2       HT       0.417000       1.00800           0
     22235 TIP3     1634     TIP3     OH2      OT      -0.834000       15.9994           0
     22236 TIP3     1634     TIP3     H1       HT       0.417000       1.00800           0
     22237 TIP3     1634     TIP3     H2       HT       0.417000       1.00800           0
     22238 TIP3     1635     TIP3     OH2      OT      -0.834000       15.9994           0
     22239 TIP3     1635     TIP3     H1       HT       0.417000       1.00800           0
     22240 TIP3     1635     TIP3     H2       HT       0.417000       1.00800           0
     22241 TIP3     1636     TIP3     OH2      OT      -0.834000       15.9994           0
     22242 TIP3     1636     TIP3     H1       HT       0.417000       1.00800           0
     22243 TIP3     1636     TIP3     H2       HT       0.417000       1.00800           0
     22244 TIP3     1637     TIP3     OH2      OT      -0.834000       15.9994           0
     22245 TIP3     1637     TIP3     H1       HT       0.417000       1.00800           0
     22246 TIP3     1637     TIP3     H2       HT       0.417000       1.00800           0
     22247 TIP3     1638     TIP3     OH2      OT      -0.834000       15.9994           0
     22248 TIP3     1638     TIP3     H1       HT       0.417000       1.00800           0
     22249 TIP3     1638     TIP3     H2       HT       0.417000       1.00800           0
     22250 TIP3     1639     TIP3     OH2      OT      -0.834000       15.9994           0
     22251 TIP3     1639     TIP3     H1       HT       0.417000       1.00800           0
     22252 TIP3     1639     TIP3     H2       HT       0.417000       1.00800           0
     22253 TIP3     1640     TIP3     OH2      OT      -0.834000       15.9994           0
     22254 TIP3     1640     TIP3     H1       HT       0.417000       1.00800           0
     22255 TIP3     1640     TIP3     H2       HT       0.417000       1.00800           0
     22256 TIP3     1641     TIP3     OH2      OT      -0.834000       15.9994           0
     22257 TIP3     1641     TIP3     H1       HT       0.417000       1.00800           0
     22258 TIP3     1641     TIP3     H2       HT       0.417000       1.00800           0
     22259 TIP3     1642     TIP3     OH2      OT      -0.834000       15.9994           0
     22260 TIP3     1642     TIP3     H1       HT       0.417000       1.00800           0
     22261 TIP3     1642     TIP3     H2       HT       0.417000       1.00800           0
     22262 TIP3     1643     TIP3     OH2      OT      -0.834000       15.9994           0
     22263 TIP3     1643     TIP3     H1       HT       0.417000       1.00800           0
     22264 TIP3     1643     TIP3     H2       HT       0.417000       1.00800           0
     22265 TIP3     1644     TIP3     OH2      OT      -0.834000       15.9994           0
     22266 TIP3     1644     TIP3     H1       HT       0.417000       1.00800           0
     22267 TIP3     1644     TIP3     H2       HT       0.417000       1.00800           0
     22268 TIP3     1645     TIP3     OH2      OT      -0.834000       15.9994           0
     22269 TIP3     1645     TIP3     H1       HT       0.417000       1.00800           0
     22270 TIP3     1645     TIP3     H2       HT       0.417000       1.00800           0
     22271 TIP3     1646     TIP3     OH2      OT      -0.834000       15.9994           0
     22272 TIP3     1646     TIP3     H1       HT       0.417000       1.00800           0
     22273 TIP3     1646     TIP3     H2       HT       0.417000       1.00800           0
     22274 TIP3     1647     TIP3     OH2      OT      -0.834000       15.9994           0
     22275 TIP3     1647     TIP3     H1       HT       0.417000       1.00800           0
     22276 TIP3     1647     TIP3     H2       HT       0.417000       1.00800           0
     22277 TIP3     1648     TIP3     OH2      OT      -0.834000       15.9994           0
     22278 TIP3     1648     TIP3     H1       HT       0.417000       1.00800           0
     22279 TIP3     1648     TIP3     H2       HT       0.417000       1.00800           0
     22280 TIP3     1649     TIP3     OH2      OT      -0.834000       15.9994           0
     22281 TIP3     1649     TIP3     H1       HT       0.417000       1.00800           0
     22282 TIP3     1649     TIP3     H2       HT       0.417000       1.00800           0
     22283 TIP3     1650     TIP3     OH2      OT      -0.834000       15.9994           0
     22284 TIP3     1650     TIP3     H1       HT       0.417000       1.00800           0
     22285 TIP3     1650     TIP3     H2       HT       0.417000       1.00800           0
     22286 TIP3     1651     TIP3     OH2      OT      -0.834000       15.9994           0
     22287 TIP3     1651     TIP3     H1       HT       0.417000       1.00800           0
     22288 TIP3     1651     TIP3     H2       HT       0.417000       1.00800           0
     22289 TIP3     1652     TIP3     OH2      OT      -0.834000       15.9994           0
     22290 TIP3     1652     TIP3     H1       HT       0.417000       1.00800           0
     22291 TIP3     1652     TIP3     H2       HT       0.417000       1.00800           0
     22292 TIP3     1653     TIP3     OH2      OT      -0.834000       15.9994           0
     22293 TIP3     1653     TIP3     H1       HT       0.417000       1.00800           0
     22294 TIP3     1653     TIP3     H2       HT       0.417000       1.00800           0
     22295 TIP3     1654     TIP3     OH2      OT      -0.834000       15.9994           0
     22296 TIP3     1654     TIP3     H1       HT       0.417000       1.00800           0
     22297 TIP3     1654     TIP3     H2       HT       0.417000       1.00800           0
     22298 TIP3     1655     TIP3     OH2      OT      -0.834000       15.9994           0
     22299 TIP3     1655     TIP3     H1       HT       0.417000       1.00800           0
     22300 TIP3     1655     TIP3     H2       HT       0.417000       1.00800           0
     22301 TIP3     1656     TIP3     OH2      OT      -0.834000       15.9994           0
     22302 TIP3     1656     TIP3     H1       HT       0.417000       1.00800           0
     22303 TIP3     1656     TIP3     H2       HT       0.417000       1.00800           0
     22304 TIP3     1657     TIP3     OH2      OT      -0.834000       15.9994           0
     22305 TIP3     1657     TIP3     H1       HT       0.417000       1.00800           0
     22306 TIP3     1657     TIP3     H2       HT       0.417000       1.00800           0
     22307 TIP3     1658     TIP3     OH2      OT      -0.834000       15.9994           0
     22308 TIP3     1658     TIP3     H1       HT       0.417000       1.00800           0
     22309 TIP3     1658     TIP3     H2       HT       0.417000       1.00800           0
     22310 TIP3     1659     TIP3     OH2      OT      -0.834000       15.9994           0
     22311 TIP3     1659     TIP3     H1       HT       0.417000       1.00800           0
     22312 TIP3     1659     TIP3     H2       HT       0.417000       1.00800           0
     22313 TIP3     1660     TIP3     OH2      OT      -0.834000       15.9994           0
     22314 TIP3     1660     TIP3     H1       HT       0.417000       1.00800           0
     22315 TIP3     1660     TIP3     H2       HT       0.417000       1.00800           0
     22316 TIP3     1661     TIP3     OH2      OT      -0.834000       15.9994           0
     22317 TIP3     1661     TIP3     H1       HT       0.417000       1.00800           0
     22318 TIP3     1661     TIP3     H2       HT       0.417000       1.00800           0
     22319 TIP3     1662     TIP3     OH2      OT      -0.834000       15.9994           0
     22320 TIP3     1662     TIP3     H1       HT       0.417000       1.00800           0
     22321 TIP3     1662     TIP3     H2       HT       0.417000       1.00800           0
     22322 TIP3     1663     TIP3     OH2      OT      -0.834000       15.9994           0
     22323 TIP3     1663     TIP3     H1       HT       0.417000       1.00800           0
     22324 TIP3     1663     TIP3     H2       HT       0.417000       1.00800           0
     22325 TIP3     1664     TIP3     OH2      OT      -0.834000       15.9994           0
     22326 TIP3     1664     TIP3     H1       HT       0.417000       1.00800           0
     22327 TIP3     1664     TIP3     H2       HT       0.417000       1.00800           0
     22328 TIP3     1665     TIP3     OH2      OT      -0.834000       15.9994           0
     22329 TIP3     1665     TIP3     H1       HT       0.417000       1.00800           0
     22330 TIP3     1665     TIP3     H2       HT       0.417000       1.00800           0
     22331 TIP3     1666     TIP3     OH2      OT      -0.834000       15.9994           0
     22332 TIP3     1666     TIP3     H1       HT       0.417000       1.00800           0
     22333 TIP3     1666     TIP3     H2       HT       0.417000       1.00800           0
     22334 TIP3     1667     TIP3     OH2      OT      -0.834000       15.9994           0
     22335 TIP3     1667     TIP3     H1       HT       0.417000       1.00800           0
     22336 TIP3     1667     TIP3     H2       HT       0.417000       1.00800           0
     22337 TIP3     1668     TIP3     OH2      OT      -0.834000       15.9994           0
     22338 TIP3     1668     TIP3     H1       HT       0.417000       1.00800           0
     22339 TIP3     1668     TIP3     H2       HT       0.417000       1.00800           0
     22340 TIP3     1669     TIP3     OH2      OT      -0.834000       15.9994           0
     22341 TIP3     1669     TIP3     H1       HT       0.417000       1.00800           0
     22342 TIP3     1669     TIP3     H2       HT       0.417000       1.00800           0
     22343 TIP3     1670     TIP3     OH2      OT      -0.834000       15.9994           0
     22344 TIP3     1670     TIP3     H1       HT       0.417000       1.00800           0
     22345 TIP3     1670     TIP3     H2       HT       0.417000       1.00800           0
     22346 TIP3     1671     TIP3     OH2      OT      -0.834000       15.9994           0
     22347 TIP3     1671     TIP3     H1       HT       0.417000       1.00800           0
     22348 TIP3     1671     TIP3     H2       HT       0.417000       1.00800           0
     22349 TIP3     1672     TIP3     OH2      OT      -0.834000       15.9994           0
     22350 TIP3     1672     TIP3     H1       HT       0.417000       1.00800           0
     22351 TIP3     1672     TIP3     H2       HT       0.417000       1.00800           0
     22352 TIP3     1673     TIP3     OH2      OT      -0.834000       15.9994           0
     22353 TIP3     1673     TIP3     H1       HT       0.417000       1.00800           0
     22354 TIP3     1673     TIP3     H2       HT       0.417000       1.00800           0
     22355 TIP3     1674     TIP3     OH2      OT      -0.834000       15.9994           0
     22356 TIP3     1674     TIP3     H1       HT       0.417000       1.00800           0
     22357 TIP3     1674     TIP3     H2       HT       0.417000       1.00800           0
     22358 TIP3     1675     TIP3     OH2      OT      -0.834000       15.9994           0
     22359 TIP3     1675     TIP3     H1       HT       0.417000       1.00800           0
     22360 TIP3     1675     TIP3     H2       HT       0.417000       1.00800           0
     22361 TIP3     1676     TIP3     OH2      OT      -0.834000       15.9994           0
     22362 TIP3     1676     TIP3     H1       HT       0.417000       1.00800           0
     22363 TIP3     1676     TIP3     H2       HT       0.417000       1.00800           0
     22364 TIP3     1677     TIP3     OH2      OT      -0.834000       15.9994           0
     22365 TIP3     1677     TIP3     H1       HT       0.417000       1.00800           0
     22366 TIP3     1677     TIP3     H2       HT       0.417000       1.00800           0
     22367 TIP3     1678     TIP3     OH2      OT      -0.834000       15.9994           0
     22368 TIP3     1678     TIP3     H1       HT       0.417000       1.00800           0
     22369 TIP3     1678     TIP3     H2       HT       0.417000       1.00800           0
     22370 TIP3     1679     TIP3     OH2      OT      -0.834000       15.9994           0
     22371 TIP3     1679     TIP3     H1       HT       0.417000       1.00800           0
     22372 TIP3     1679     TIP3     H2       HT       0.417000       1.00800           0
     22373 TIP3     1680     TIP3     OH2      OT      -0.834000       15.9994           0
     22374 TIP3     1680     TIP3     H1       HT       0.417000       1.00800           0
     22375 TIP3     1680     TIP3     H2       HT       0.417000       1.00800           0
     22376 TIP3     1681     TIP3     OH2      OT      -0.834000       15.9994           0
     22377 TIP3     1681     TIP3     H1       HT       0.417000       1.00800           0
     22378 TIP3     1681     TIP3     H2       HT       0.417000       1.00800           0
     22379 TIP3     1682     TIP3     OH2      OT      -0.834000       15.9994           0
     22380 TIP3     1682     TIP3     H1       HT       0.417000       1.00800           0
     22381 TIP3     1682     TIP3     H2       HT       0.417000       1.00800           0
     22382 TIP3     1683     TIP3     OH2      OT      -0.834000       15.9994           0
     22383 TIP3     1683     TIP3     H1       HT       0.417000       1.00800           0
     22384 TIP3     1683     TIP3     H2       HT       0.417000       1.00800           0
     22385 TIP3     1684     TIP3     OH2      OT      -0.834000       15.9994           0
     22386 TIP3     1684     TIP3     H1       HT       0.417000       1.00800           0
     22387 TIP3     1684     TIP3     H2       HT       0.417000       1.00800           0
     22388 TIP3     1685     TIP3     OH2      OT      -0.834000       15.9994           0
     22389 TIP3     1685     TIP3     H1       HT       0.417000       1.00800           0
     22390 TIP3     1685     TIP3     H2       HT       0.417000       1.00800           0
     22391 TIP3     1686     TIP3     OH2      OT      -0.834000       15.9994           0
     22392 TIP3     1686     TIP3     H1       HT       0.417000       1.00800           0
     22393 TIP3     1686     TIP3     H2       HT       0.417000       1.00800           0
     22394 TIP3     1687     TIP3     OH2      OT      -0.834000       15.9994           0
     22395 TIP3     1687     TIP3     H1       HT       0.417000       1.00800           0
     22396 TIP3     1687     TIP3     H2       HT       0.417000       1.00800           0
     22397 TIP3     1688     TIP3     OH2      OT      -0.834000       15.9994           0
     22398 TIP3     1688     TIP3     H1       HT       0.417000       1.00800           0
     22399 TIP3     1688     TIP3     H2       HT       0.417000       1.00800           0
     22400 TIP3     1689     TIP3     OH2      OT      -0.834000       15.9994           0
     22401 TIP3     1689     TIP3     H1       HT       0.417000       1.00800           0
     22402 TIP3     1689     TIP3     H2       HT       0.417000       1.00800           0
     22403 TIP3     1690     TIP3     OH2      OT      -0.834000       15.9994           0
     22404 TIP3     1690     TIP3     H1       HT       0.417000       1.00800           0
     22405 TIP3     1690     TIP3     H2       HT       0.417000       1.00800           0
     22406 TIP3     1691     TIP3     OH2      OT      -0.834000       15.9994           0
     22407 TIP3     1691     TIP3     H1       HT       0.417000       1.00800           0
     22408 TIP3     1691     TIP3     H2       HT       0.417000       1.00800           0
     22409 TIP3     1692     TIP3     OH2      OT      -0.834000       15.9994           0
     22410 TIP3     1692     TIP3     H1       HT       0.417000       1.00800           0
     22411 TIP3     1692     TIP3     H2       HT       0.417000       1.00800           0
     22412 TIP3     1693     TIP3     OH2      OT      -0.834000       15.9994           0
     22413 TIP3     1693     TIP3     H1       HT       0.417000       1.00800           0
     22414 TIP3     1693     TIP3     H2       HT       0.417000       1.00800           0
     22415 TIP3     1694     TIP3     OH2      OT      -0.834000       15.9994           0
     22416 TIP3     1694     TIP3     H1       HT       0.417000       1.00800           0
     22417 TIP3     1694     TIP3     H2       HT       0.417000       1.00800           0
     22418 TIP3     1695     TIP3     OH2      OT      -0.834000       15.9994           0
     22419 TIP3     1695     TIP3     H1       HT       0.417000       1.00800           0
     22420 TIP3     1695     TIP3     H2       HT       0.417000       1.00800           0
     22421 TIP3     1696     TIP3     OH2      OT      -0.834000       15.9994           0
     22422 TIP3     1696     TIP3     H1       HT       0.417000       1.00800           0
     22423 TIP3     1696     TIP3     H2       HT       0.417000       1.00800           0
     22424 TIP3     1697     TIP3     OH2      OT      -0.834000       15.9994           0
     22425 TIP3     1697     TIP3     H1       HT       0.417000       1.00800           0
     22426 TIP3     1697     TIP3     H2       HT       0.417000       1.00800           0
     22427 TIP3     1698     TIP3     OH2      OT      -0.834000       15.9994           0
     22428 TIP3     1698     TIP3     H1       HT       0.417000       1.00800           0
     22429 TIP3     1698     TIP3     H2       HT       0.417000       1.00800           0
     22430 TIP3     1699     TIP3     OH2      OT      -0.834000       15.9994           0
     22431 TIP3     1699     TIP3     H1       HT       0.417000       1.00800           0
     22432 TIP3     1699     TIP3     H2       HT       0.417000       1.00800           0
     22433 TIP3     1700     TIP3     OH2      OT      -0.834000       15.9994           0
     22434 TIP3     1700     TIP3     H1       HT       0.417000       1.00800           0
     22435 TIP3     1700     TIP3     H2       HT       0.417000       1.00800           0
     22436 TIP3     1701     TIP3     OH2      OT      -0.834000       15.9994           0
     22437 TIP3     1701     TIP3     H1       HT       0.417000       1.00800           0
     22438 TIP3     1701     TIP3     H2       HT       0.417000       1.00800           0
     22439 TIP3     1702     TIP3     OH2      OT      -0.834000       15.9994           0
     22440 TIP3     1702     TIP3     H1       HT       0.417000       1.00800           0
     22441 TIP3     1702     TIP3     H2       HT       0.417000       1.00800           0
     22442 TIP3     1703     TIP3     OH2      OT      -0.834000       15.9994           0
     22443 TIP3     1703     TIP3     H1       HT       0.417000       1.00800           0
     22444 TIP3     1703     TIP3     H2       HT       0.417000       1.00800           0
     22445 TIP3     1704     TIP3     OH2      OT      -0.834000       15.9994           0
     22446 TIP3     1704     TIP3     H1       HT       0.417000       1.00800           0
     22447 TIP3     1704     TIP3     H2       HT       0.417000       1.00800           0
     22448 TIP3     1705     TIP3     OH2      OT      -0.834000       15.9994           0
     22449 TIP3     1705     TIP3     H1       HT       0.417000       1.00800           0
     22450 TIP3     1705     TIP3     H2       HT       0.417000       1.00800           0
     22451 TIP3     1706     TIP3     OH2      OT      -0.834000       15.9994           0
     22452 TIP3     1706     TIP3     H1       HT       0.417000       1.00800           0
     22453 TIP3     1706     TIP3     H2       HT       0.417000       1.00800           0
     22454 TIP3     1707     TIP3     OH2      OT      -0.834000       15.9994           0
     22455 TIP3     1707     TIP3     H1       HT       0.417000       1.00800           0
     22456 TIP3     1707     TIP3     H2       HT       0.417000       1.00800           0
     22457 TIP3     1708     TIP3     OH2      OT      -0.834000       15.9994           0
     22458 TIP3     1708     TIP3     H1       HT       0.417000       1.00800           0
     22459 TIP3     1708     TIP3     H2       HT       0.417000       1.00800           0
     22460 TIP3     1709     TIP3     OH2      OT      -0.834000       15.9994           0
     22461 TIP3     1709     TIP3     H1       HT       0.417000       1.00800           0
     22462 TIP3     1709     TIP3     H2       HT       0.417000       1.00800           0
     22463 TIP3     1710     TIP3     OH2      OT      -0.834000       15.9994           0
     22464 TIP3     1710     TIP3     H1       HT       0.417000       1.00800           0
     22465 TIP3     1710     TIP3     H2       HT       0.417000       1.00800           0
     22466 TIP3     1711     TIP3     OH2      OT      -0.834000       15.9994           0
     22467 TIP3     1711     TIP3     H1       HT       0.417000       1.00800           0
     22468 TIP3     1711     TIP3     H2       HT       0.417000       1.00800           0
     22469 TIP3     1712     TIP3     OH2      OT      -0.834000       15.9994           0
     22470 TIP3     1712     TIP3     H1       HT       0.417000       1.00800           0
     22471 TIP3     1712     TIP3     H2       HT       0.417000       1.00800           0
     22472 TIP3     1713     TIP3     OH2      OT      -0.834000       15.9994           0
     22473 TIP3     1713     TIP3     H1       HT       0.417000       1.00800           0
     22474 TIP3     1713     TIP3     H2       HT       0.417000       1.00800           0
     22475 TIP3     1714     TIP3     OH2      OT      -0.834000       15.9994           0
     22476 TIP3     1714     TIP3     H1       HT       0.417000       1.00800           0
     22477 TIP3     1714     TIP3     H2       HT       0.417000       1.00800           0
     22478 TIP3     1715     TIP3     OH2      OT      -0.834000       15.9994           0
     22479 TIP3     1715     TIP3     H1       HT       0.417000       1.00800           0
     22480 TIP3     1715     TIP3     H2       HT       0.417000       1.00800           0
     22481 TIP3     1716     TIP3     OH2      OT      -0.834000       15.9994           0
     22482 TIP3     1716     TIP3     H1       HT       0.417000       1.00800           0
     22483 TIP3     1716     TIP3     H2       HT       0.417000       1.00800           0
     22484 TIP3     1717     TIP3     OH2      OT      -0.834000       15.9994           0
     22485 TIP3     1717     TIP3     H1       HT       0.417000       1.00800           0
     22486 TIP3     1717     TIP3     H2       HT       0.417000       1.00800           0
     22487 TIP3     1718     TIP3     OH2      OT      -0.834000       15.9994           0
     22488 TIP3     1718     TIP3     H1       HT       0.417000       1.00800           0
     22489 TIP3     1718     TIP3     H2       HT       0.417000       1.00800           0
     22490 TIP3     1719     TIP3     OH2      OT      -0.834000       15.9994           0
     22491 TIP3     1719     TIP3     H1       HT       0.417000       1.00800           0
     22492 TIP3     1719     TIP3     H2       HT       0.417000       1.00800           0
     22493 TIP3     1720     TIP3     OH2      OT      -0.834000       15.9994           0
     22494 TIP3     1720     TIP3     H1       HT       0.417000       1.00800           0
     22495 TIP3     1720     TIP3     H2       HT       0.417000       1.00800           0
     22496 TIP3     1721     TIP3     OH2      OT      -0.834000       15.9994           0
     22497 TIP3     1721     TIP3     H1       HT       0.417000       1.00800           0
     22498 TIP3     1721     TIP3     H2       HT       0.417000       1.00800           0
     22499 TIP3     1722     TIP3     OH2      OT      -0.834000       15.9994           0
     22500 TIP3     1722     TIP3     H1       HT       0.417000       1.00800           0
     22501 TIP3     1722     TIP3     H2       HT       0.417000       1.00800           0
     22502 TIP3     1723     TIP3     OH2      OT      -0.834000       15.9994           0
     22503 TIP3     1723     TIP3     H1       HT       0.417000       1.00800           0
     22504 TIP3     1723     TIP3     H2       HT       0.417000       1.00800           0
     22505 TIP3     1724     TIP3     OH2      OT      -0.834000       15.9994           0
     22506 TIP3     1724     TIP3     H1       HT       0.417000       1.00800           0
     22507 TIP3     1724     TIP3     H2       HT       0.417000       1.00800           0
     22508 TIP3     1725     TIP3     OH2      OT      -0.834000       15.9994           0
     22509 TIP3     1725     TIP3     H1       HT       0.417000       1.00800           0
     22510 TIP3     1725     TIP3     H2       HT       0.417000       1.00800           0
     22511 TIP3     1726     TIP3     OH2      OT      -0.834000       15.9994           0
     22512 TIP3     1726     TIP3     H1       HT       0.417000       1.00800           0
     22513 TIP3     1726     TIP3     H2       HT       0.417000       1.00800           0
     22514 TIP3     1727     TIP3     OH2      OT      -0.834000       15.9994           0
     22515 TIP3     1727     TIP3     H1       HT       0.417000       1.00800           0
     22516 TIP3     1727     TIP3     H2       HT       0.417000       1.00800           0
     22517 TIP3     1728     TIP3     OH2      OT      -0.834000       15.9994           0
     22518 TIP3     1728     TIP3     H1       HT       0.417000       1.00800           0
     22519 TIP3     1728     TIP3     H2       HT       0.417000       1.00800           0
     22520 TIP3     1729     TIP3     OH2      OT      -0.834000       15.9994           0
     22521 TIP3     1729     TIP3     H1       HT       0.417000       1.00800           0
     22522 TIP3     1729     TIP3     H2       HT       0.417000       1.00800           0
     22523 TIP3     1730     TIP3     OH2      OT      -0.834000       15.9994           0
     22524 TIP3     1730     TIP3     H1       HT       0.417000       1.00800           0
     22525 TIP3     1730     TIP3     H2       HT       0.417000       1.00800           0
     22526 TIP3     1731     TIP3     OH2      OT      -0.834000       15.9994           0
     22527 TIP3     1731     TIP3     H1       HT       0.417000       1.00800           0
     22528 TIP3     1731     TIP3     H2       HT       0.417000       1.00800           0
     22529 TIP3     1732     TIP3     OH2      OT      -0.834000       15.9994           0
     22530 TIP3     1732     TIP3     H1       HT       0.417000       1.00800           0
     22531 TIP3     1732     TIP3     H2       HT       0.417000       1.00800           0
     22532 TIP3     1733     TIP3     OH2      OT      -0.834000       15.9994           0
     22533 TIP3     1733     TIP3     H1       HT       0.417000       1.00800           0
     22534 TIP3     1733     TIP3     H2       HT       0.417000       1.00800           0
     22535 TIP3     1734     TIP3     OH2      OT      -0.834000       15.9994           0
     22536 TIP3     1734     TIP3     H1       HT       0.417000       1.00800           0
     22537 TIP3     1734     TIP3     H2       HT       0.417000       1.00800           0
     22538 TIP3     1735     TIP3     OH2      OT      -0.834000       15.9994           0
     22539 TIP3     1735     TIP3     H1       HT       0.417000       1.00800           0
     22540 TIP3     1735     TIP3     H2       HT       0.417000       1.00800           0
     22541 TIP3     1736     TIP3     OH2      OT      -0.834000       15.9994           0
     22542 TIP3     1736     TIP3     H1       HT       0.417000       1.00800           0
     22543 TIP3     1736     TIP3     H2       HT       0.417000       1.00800           0
     22544 TIP3     1737     TIP3     OH2      OT      -0.834000       15.9994           0
     22545 TIP3     1737     TIP3     H1       HT       0.417000       1.00800           0
     22546 TIP3     1737     TIP3     H2       HT       0.417000       1.00800           0
     22547 TIP3     1738     TIP3     OH2      OT      -0.834000       15.9994           0
     22548 TIP3     1738     TIP3     H1       HT       0.417000       1.00800           0
     22549 TIP3     1738     TIP3     H2       HT       0.417000       1.00800           0
     22550 TIP3     1739     TIP3     OH2      OT      -0.834000       15.9994           0
     22551 TIP3     1739     TIP3     H1       HT       0.417000       1.00800           0
     22552 TIP3     1739     TIP3     H2       HT       0.417000       1.00800           0
     22553 TIP3     1740     TIP3     OH2      OT      -0.834000       15.9994           0
     22554 TIP3     1740     TIP3     H1       HT       0.417000       1.00800           0
     22555 TIP3     1740     TIP3     H2       HT       0.417000       1.00800           0
     22556 TIP3     1741     TIP3     OH2      OT      -0.834000       15.9994           0
     22557 TIP3     1741     TIP3     H1       HT       0.417000       1.00800           0
     22558 TIP3     1741     TIP3     H2       HT       0.417000       1.00800           0
     22559 TIP3     1742     TIP3     OH2      OT      -0.834000       15.9994           0
     22560 TIP3     1742     TIP3     H1       HT       0.417000       1.00800           0
     22561 TIP3     1742     TIP3     H2       HT       0.417000       1.00800           0
     22562 TIP3     1743     TIP3     OH2      OT      -0.834000       15.9994           0
     22563 TIP3     1743     TIP3     H1       HT       0.417000       1.00800           0
     22564 TIP3     1743     TIP3     H2       HT       0.417000       1.00800           0
     22565 TIP3     1744     TIP3     OH2      OT      -0.834000       15.9994           0
     22566 TIP3     1744     TIP3     H1       HT       0.417000       1.00800           0
     22567 TIP3     1744     TIP3     H2       HT       0.417000       1.00800           0
     22568 TIP3     1745     TIP3     OH2      OT      -0.834000       15.9994           0
     22569 TIP3     1745     TIP3     H1       HT       0.417000       1.00800           0
     22570 TIP3     1745     TIP3     H2       HT       0.417000       1.00800           0
     22571 TIP3     1746     TIP3     OH2      OT      -0.834000       15.9994           0
     22572 TIP3     1746     TIP3     H1       HT       0.417000       1.00800           0
     22573 TIP3     1746     TIP3     H2       HT       0.417000       1.00800           0
     22574 TIP3     1747     TIP3     OH2      OT      -0.834000       15.9994           0
     22575 TIP3     1747     TIP3     H1       HT       0.417000       1.00800           0
     22576 TIP3     1747     TIP3     H2       HT       0.417000       1.00800           0
     22577 TIP3     1748     TIP3     OH2      OT      -0.834000       15.9994           0
     22578 TIP3     1748     TIP3     H1       HT       0.417000       1.00800           0
     22579 TIP3     1748     TIP3     H2       HT       0.417000       1.00800           0
     22580 TIP3     1749     TIP3     OH2      OT      -0.834000       15.9994           0
     22581 TIP3     1749     TIP3     H1       HT       0.417000       1.00800           0
     22582 TIP3     1749     TIP3     H2       HT       0.417000       1.00800           0
     22583 TIP3     1750     TIP3     OH2      OT      -0.834000       15.9994           0
     22584 TIP3     1750     TIP3     H1       HT       0.417000       1.00800           0
     22585 TIP3     1750     TIP3     H2       HT       0.417000       1.00800           0
     22586 TIP3     1751     TIP3     OH2      OT      -0.834000       15.9994           0
     22587 TIP3     1751     TIP3     H1       HT       0.417000       1.00800           0
     22588 TIP3     1751     TIP3     H2       HT       0.417000       1.00800           0
     22589 TIP3     1752     TIP3     OH2      OT      -0.834000       15.9994           0
     22590 TIP3     1752     TIP3     H1       HT       0.417000       1.00800           0
     22591 TIP3     1752     TIP3     H2       HT       0.417000       1.00800           0
     22592 TIP3     1753     TIP3     OH2      OT      -0.834000       15.9994           0
     22593 TIP3     1753     TIP3     H1       HT       0.417000       1.00800           0
     22594 TIP3     1753     TIP3     H2       HT       0.417000       1.00800           0
     22595 TIP3     1754     TIP3     OH2      OT      -0.834000       15.9994           0
     22596 TIP3     1754     TIP3     H1       HT       0.417000       1.00800           0
     22597 TIP3     1754     TIP3     H2       HT       0.417000       1.00800           0
     22598 TIP3     1755     TIP3     OH2      OT      -0.834000       15.9994           0
     22599 TIP3     1755     TIP3     H1       HT       0.417000       1.00800           0
     22600 TIP3     1755     TIP3     H2       HT       0.417000       1.00800           0
     22601 TIP3     1756     TIP3     OH2      OT      -0.834000       15.9994           0
     22602 TIP3     1756     TIP3     H1       HT       0.417000       1.00800           0
     22603 TIP3     1756     TIP3     H2       HT       0.417000       1.00800           0
     22604 TIP3     1757     TIP3     OH2      OT      -0.834000       15.9994           0
     22605 TIP3     1757     TIP3     H1       HT       0.417000       1.00800           0
     22606 TIP3     1757     TIP3     H2       HT       0.417000       1.00800           0
     22607 TIP3     1758     TIP3     OH2      OT      -0.834000       15.9994           0
     22608 TIP3     1758     TIP3     H1       HT       0.417000       1.00800           0
     22609 TIP3     1758     TIP3     H2       HT       0.417000       1.00800           0
     22610 TIP3     1759     TIP3     OH2      OT      -0.834000       15.9994           0
     22611 TIP3     1759     TIP3     H1       HT       0.417000       1.00800           0
     22612 TIP3     1759     TIP3     H2       HT       0.417000       1.00800           0
     22613 TIP3     1760     TIP3     OH2      OT      -0.834000       15.9994           0
     22614 TIP3     1760     TIP3     H1       HT       0.417000       1.00800           0
     22615 TIP3     1760     TIP3     H2       HT       0.417000       1.00800           0
     22616 TIP3     1761     TIP3     OH2      OT      -0.834000       15.9994           0
     22617 TIP3     1761     TIP3     H1       HT       0.417000       1.00800           0
     22618 TIP3     1761     TIP3     H2       HT       0.417000       1.00800           0
     22619 TIP3     1762     TIP3     OH2      OT      -0.834000       15.9994           0
     22620 TIP3     1762     TIP3     H1       HT       0.417000       1.00800           0
     22621 TIP3     1762     TIP3     H2       HT       0.417000       1.00800           0
     22622 TIP3     1763     TIP3     OH2      OT      -0.834000       15.9994           0
     22623 TIP3     1763     TIP3     H1       HT       0.417000       1.00800           0
     22624 TIP3     1763     TIP3     H2       HT       0.417000       1.00800           0
     22625 TIP3     1764     TIP3     OH2      OT      -0.834000       15.9994           0
     22626 TIP3     1764     TIP3     H1       HT       0.417000       1.00800           0
     22627 TIP3     1764     TIP3     H2       HT       0.417000       1.00800           0
     22628 TIP3     1765     TIP3     OH2      OT      -0.834000       15.9994           0
     22629 TIP3     1765     TIP3     H1       HT       0.417000       1.00800           0
     22630 TIP3     1765     TIP3     H2       HT       0.417000       1.00800           0
     22631 TIP3     1766     TIP3     OH2      OT      -0.834000       15.9994           0
     22632 TIP3     1766     TIP3     H1       HT       0.417000       1.00800           0
     22633 TIP3     1766     TIP3     H2       HT       0.417000       1.00800           0
     22634 TIP3     1767     TIP3     OH2      OT      -0.834000       15.9994           0
     22635 TIP3     1767     TIP3     H1       HT       0.417000       1.00800           0
     22636 TIP3     1767     TIP3     H2       HT       0.417000       1.00800           0
     22637 TIP3     1768     TIP3     OH2      OT      -0.834000       15.9994           0
     22638 TIP3     1768     TIP3     H1       HT       0.417000       1.00800           0
     22639 TIP3     1768     TIP3     H2       HT       0.417000       1.00800           0
     22640 TIP3     1769     TIP3     OH2      OT      -0.834000       15.9994           0
     22641 TIP3     1769     TIP3     H1       HT       0.417000       1.00800           0
     22642 TIP3     1769     TIP3     H2       HT       0.417000       1.00800           0
     22643 TIP3     1770     TIP3     OH2      OT      -0.834000       15.9994           0
     22644 TIP3     1770     TIP3     H1       HT       0.417000       1.00800           0
     22645 TIP3     1770     TIP3     H2       HT       0.417000       1.00800           0
     22646 TIP3     1771     TIP3     OH2      OT      -0.834000       15.9994           0
     22647 TIP3     1771     TIP3     H1       HT       0.417000       1.00800           0
     22648 TIP3     1771     TIP3     H2       HT       0.417000       1.00800           0
     22649 TIP3     1772     TIP3     OH2      OT      -0.834000       15.9994           0
     22650 TIP3     1772     TIP3     H1       HT       0.417000       1.00800           0
     22651 TIP3     1772     TIP3     H2       HT       0.417000       1.00800           0
     22652 TIP3     1773     TIP3     OH2      OT      -0.834000       15.9994           0
     22653 TIP3     1773     TIP3     H1       HT       0.417000       1.00800           0
     22654 TIP3     1773     TIP3     H2       HT       0.417000       1.00800           0
     22655 TIP3     1774     TIP3     OH2      OT      -0.834000       15.9994           0
     22656 TIP3     1774     TIP3     H1       HT       0.417000       1.00800           0
     22657 TIP3     1774     TIP3     H2       HT       0.417000       1.00800           0
     22658 TIP3     1775     TIP3     OH2      OT      -0.834000       15.9994           0
     22659 TIP3     1775     TIP3     H1       HT       0.417000       1.00800           0
     22660 TIP3     1775     TIP3     H2       HT       0.417000       1.00800           0
     22661 TIP3     1776     TIP3     OH2      OT      -0.834000       15.9994           0
     22662 TIP3     1776     TIP3     H1       HT       0.417000       1.00800           0
     22663 TIP3     1776     TIP3     H2       HT       0.417000       1.00800           0
     22664 TIP3     1777     TIP3     OH2      OT      -0.834000       15.9994           0
     22665 TIP3     1777     TIP3     H1       HT       0.417000       1.00800           0
     22666 TIP3     1777     TIP3     H2       HT       0.417000       1.00800           0
     22667 TIP3     1778     TIP3     OH2      OT      -0.834000       15.9994           0
     22668 TIP3     1778     TIP3     H1       HT       0.417000       1.00800           0
     22669 TIP3     1778     TIP3     H2       HT       0.417000       1.00800           0
     22670 TIP3     1779     TIP3     OH2      OT      -0.834000       15.9994           0
     22671 TIP3     1779     TIP3     H1       HT       0.417000       1.00800           0
     22672 TIP3     1779     TIP3     H2       HT       0.417000       1.00800           0
     22673 TIP3     1780     TIP3     OH2      OT      -0.834000       15.9994           0
     22674 TIP3     1780     TIP3     H1       HT       0.417000       1.00800           0
     22675 TIP3     1780     TIP3     H2       HT       0.417000       1.00800           0
     22676 TIP3     1781     TIP3     OH2      OT      -0.834000       15.9994           0
     22677 TIP3     1781     TIP3     H1       HT       0.417000       1.00800           0
     22678 TIP3     1781     TIP3     H2       HT       0.417000       1.00800           0
     22679 TIP3     1782     TIP3     OH2      OT      -0.834000       15.9994           0
     22680 TIP3     1782     TIP3     H1       HT       0.417000       1.00800           0
     22681 TIP3     1782     TIP3     H2       HT       0.417000       1.00800           0
     22682 TIP3     1783     TIP3     OH2      OT      -0.834000       15.9994           0
     22683 TIP3     1783     TIP3     H1       HT       0.417000       1.00800           0
     22684 TIP3     1783     TIP3     H2       HT       0.417000       1.00800           0
     22685 TIP3     1784     TIP3     OH2      OT      -0.834000       15.9994           0
     22686 TIP3     1784     TIP3     H1       HT       0.417000       1.00800           0
     22687 TIP3     1784     TIP3     H2       HT       0.417000       1.00800           0
     22688 TIP3     1785     TIP3     OH2      OT      -0.834000       15.9994           0
     22689 TIP3     1785     TIP3     H1       HT       0.417000       1.00800           0
     22690 TIP3     1785     TIP3     H2       HT       0.417000       1.00800           0
     22691 TIP3     1786     TIP3     OH2      OT      -0.834000       15.9994           0
     22692 TIP3     1786     TIP3     H1       HT       0.417000       1.00800           0
     22693 TIP3     1786     TIP3     H2       HT       0.417000       1.00800           0
     22694 TIP3     1787     TIP3     OH2      OT      -0.834000       15.9994           0
     22695 TIP3     1787     TIP3     H1       HT       0.417000       1.00800           0
     22696 TIP3     1787     TIP3     H2       HT       0.417000       1.00800           0
     22697 TIP3     1788     TIP3     OH2      OT      -0.834000       15.9994           0
     22698 TIP3     1788     TIP3     H1       HT       0.417000       1.00800           0
     22699 TIP3     1788     TIP3     H2       HT       0.417000       1.00800           0
     22700 TIP3     1789     TIP3     OH2      OT      -0.834000       15.9994           0
     22701 TIP3     1789     TIP3     H1       HT       0.417000       1.00800           0
     22702 TIP3     1789     TIP3     H2       HT       0.417000       1.00800           0
     22703 TIP3     1790     TIP3     OH2      OT      -0.834000       15.9994           0
     22704 TIP3     1790     TIP3     H1       HT       0.417000       1.00800           0
     22705 TIP3     1790     TIP3     H2       HT       0.417000       1.00800           0
     22706 TIP3     1791     TIP3     OH2      OT      -0.834000       15.9994           0
     22707 TIP3     1791     TIP3     H1       HT       0.417000       1.00800           0
     22708 TIP3     1791     TIP3     H2       HT       0.417000       1.00800           0
     22709 TIP3     1792     TIP3     OH2      OT      -0.834000       15.9994           0
     22710 TIP3     1792     TIP3     H1       HT       0.417000       1.00800           0
     22711 TIP3     1792     TIP3     H2       HT       0.417000       1.00800           0
     22712 TIP3     1793     TIP3     OH2      OT      -0.834000       15.9994           0
     22713 TIP3     1793     TIP3     H1       HT       0.417000       1.00800           0
     22714 TIP3     1793     TIP3     H2       HT       0.417000       1.00800           0
     22715 TIP3     1794     TIP3     OH2      OT      -0.834000       15.9994           0
     22716 TIP3     1794     TIP3     H1       HT       0.417000       1.00800           0
     22717 TIP3     1794     TIP3     H2       HT       0.417000       1.00800           0
     22718 TIP3     1795     TIP3     OH2      OT      -0.834000       15.9994           0
     22719 TIP3     1795     TIP3     H1       HT       0.417000       1.00800           0
     22720 TIP3     1795     TIP3     H2       HT       0.417000       1.00800           0
     22721 TIP3     1796     TIP3     OH2      OT      -0.834000       15.9994           0
     22722 TIP3     1796     TIP3     H1       HT       0.417000       1.00800           0
     22723 TIP3     1796     TIP3     H2       HT       0.417000       1.00800           0
     22724 TIP3     1797     TIP3     OH2      OT      -0.834000       15.9994           0
     22725 TIP3     1797     TIP3     H1       HT       0.417000       1.00800           0
     22726 TIP3     1797     TIP3     H2       HT       0.417000       1.00800           0
     22727 TIP3     1798     TIP3     OH2      OT      -0.834000       15.9994           0
     22728 TIP3     1798     TIP3     H1       HT       0.417000       1.00800           0
     22729 TIP3     1798     TIP3     H2       HT       0.417000       1.00800           0
     22730 TIP3     1799     TIP3     OH2      OT      -0.834000       15.9994           0
     22731 TIP3     1799     TIP3     H1       HT       0.417000       1.00800           0
     22732 TIP3     1799     TIP3     H2       HT       0.417000       1.00800           0
     22733 TIP3     1800     TIP3     OH2      OT      -0.834000       15.9994           0
     22734 TIP3     1800     TIP3     H1       HT       0.417000       1.00800           0
     22735 TIP3     1800     TIP3     H2       HT       0.417000       1.00800           0
     22736 TIP3     1801     TIP3     OH2      OT      -0.834000       15.9994           0
     22737 TIP3     1801     TIP3     H1       HT       0.417000       1.00800           0
     22738 TIP3     1801     TIP3     H2       HT       0.417000       1.00800           0
     22739 TIP3     1802     TIP3     OH2      OT      -0.834000       15.9994           0
     22740 TIP3     1802     TIP3     H1       HT       0.417000       1.00800           0
     22741 TIP3     1802     TIP3     H2       HT       0.417000       1.00800           0
     22742 TIP3     1803     TIP3     OH2      OT      -0.834000       15.9994           0
     22743 TIP3     1803     TIP3     H1       HT       0.417000       1.00800           0
     22744 TIP3     1803     TIP3     H2       HT       0.417000       1.00800           0
     22745 TIP3     1804     TIP3     OH2      OT      -0.834000       15.9994           0
     22746 TIP3     1804     TIP3     H1       HT       0.417000       1.00800           0
     22747 TIP3     1804     TIP3     H2       HT       0.417000       1.00800           0
     22748 TIP3     1805     TIP3     OH2      OT      -0.834000       15.9994           0
     22749 TIP3     1805     TIP3     H1       HT       0.417000       1.00800           0
     22750 TIP3     1805     TIP3     H2       HT       0.417000       1.00800           0
     22751 TIP3     1806     TIP3     OH2      OT      -0.834000       15.9994           0
     22752 TIP3     1806     TIP3     H1       HT       0.417000       1.00800           0
     22753 TIP3     1806     TIP3     H2       HT       0.417000       1.00800           0
     22754 TIP3     1807     TIP3     OH2      OT      -0.834000       15.9994           0
     22755 TIP3     1807     TIP3     H1       HT       0.417000       1.00800           0
     22756 TIP3     1807     TIP3     H2       HT       0.417000       1.00800           0
     22757 TIP3     1808     TIP3     OH2      OT      -0.834000       15.9994           0
     22758 TIP3     1808     TIP3     H1       HT       0.417000       1.00800           0
     22759 TIP3     1808     TIP3     H2       HT       0.417000       1.00800           0
     22760 TIP3     1809     TIP3     OH2      OT      -0.834000       15.9994           0
     22761 TIP3     1809     TIP3     H1       HT       0.417000       1.00800           0
     22762 TIP3     1809     TIP3     H2       HT       0.417000       1.00800           0
     22763 TIP3     1810     TIP3     OH2      OT      -0.834000       15.9994           0
     22764 TIP3     1810     TIP3     H1       HT       0.417000       1.00800           0
     22765 TIP3     1810     TIP3     H2       HT       0.417000       1.00800           0
     22766 TIP3     1811     TIP3     OH2      OT      -0.834000       15.9994           0
     22767 TIP3     1811     TIP3     H1       HT       0.417000       1.00800           0
     22768 TIP3     1811     TIP3     H2       HT       0.417000       1.00800           0
     22769 TIP3     1812     TIP3     OH2      OT      -0.834000       15.9994           0
     22770 TIP3     1812     TIP3     H1       HT       0.417000       1.00800           0
     22771 TIP3     1812     TIP3     H2       HT       0.417000       1.00800           0
     22772 TIP3     1813     TIP3     OH2      OT      -0.834000       15.9994           0
     22773 TIP3     1813     TIP3     H1       HT       0.417000       1.00800           0
     22774 TIP3     1813     TIP3     H2       HT       0.417000       1.00800           0
     22775 TIP3     1814     TIP3     OH2      OT      -0.834000       15.9994           0
     22776 TIP3     1814     TIP3     H1       HT       0.417000       1.00800           0
     22777 TIP3     1814     TIP3     H2       HT       0.417000       1.00800           0
     22778 TIP3     1815     TIP3     OH2      OT      -0.834000       15.9994           0
     22779 TIP3     1815     TIP3     H1       HT       0.417000       1.00800           0
     22780 TIP3     1815     TIP3     H2       HT       0.417000       1.00800           0
     22781 TIP3     1816     TIP3     OH2      OT      -0.834000       15.9994           0
     22782 TIP3     1816     TIP3     H1       HT       0.417000       1.00800           0
     22783 TIP3     1816     TIP3     H2       HT       0.417000       1.00800           0
     22784 TIP3     1817     TIP3     OH2      OT      -0.834000       15.9994           0
     22785 TIP3     1817     TIP3     H1       HT       0.417000       1.00800           0
     22786 TIP3     1817     TIP3     H2       HT       0.417000       1.00800           0
     22787 TIP3     1818     TIP3     OH2      OT      -0.834000       15.9994           0
     22788 TIP3     1818     TIP3     H1       HT       0.417000       1.00800           0
     22789 TIP3     1818     TIP3     H2       HT       0.417000       1.00800           0
     22790 TIP3     1819     TIP3     OH2      OT      -0.834000       15.9994           0
     22791 TIP3     1819     TIP3     H1       HT       0.417000       1.00800           0
     22792 TIP3     1819     TIP3     H2       HT       0.417000       1.00800           0
     22793 TIP3     1820     TIP3     OH2      OT      -0.834000       15.9994           0
     22794 TIP3     1820     TIP3     H1       HT       0.417000       1.00800           0
     22795 TIP3     1820     TIP3     H2       HT       0.417000       1.00800           0
     22796 TIP3     1821     TIP3     OH2      OT      -0.834000       15.9994           0
     22797 TIP3     1821     TIP3     H1       HT       0.417000       1.00800           0
     22798 TIP3     1821     TIP3     H2       HT       0.417000       1.00800           0
     22799 TIP3     1822     TIP3     OH2      OT      -0.834000       15.9994           0
     22800 TIP3     1822     TIP3     H1       HT       0.417000       1.00800           0
     22801 TIP3     1822     TIP3     H2       HT       0.417000       1.00800           0
     22802 TIP3     1823     TIP3     OH2      OT      -0.834000       15.9994           0
     22803 TIP3     1823     TIP3     H1       HT       0.417000       1.00800           0
     22804 TIP3     1823     TIP3     H2       HT       0.417000       1.00800           0
     22805 TIP3     1824     TIP3     OH2      OT      -0.834000       15.9994           0
     22806 TIP3     1824     TIP3     H1       HT       0.417000       1.00800           0
     22807 TIP3     1824     TIP3     H2       HT       0.417000       1.00800           0
     22808 TIP3     1825     TIP3     OH2      OT      -0.834000       15.9994           0
     22809 TIP3     1825     TIP3     H1       HT       0.417000       1.00800           0
     22810 TIP3     1825     TIP3     H2       HT       0.417000       1.00800           0
     22811 TIP3     1826     TIP3     OH2      OT      -0.834000       15.9994           0
     22812 TIP3     1826     TIP3     H1       HT       0.417000       1.00800           0
     22813 TIP3     1826     TIP3     H2       HT       0.417000       1.00800           0
     22814 TIP3     1827     TIP3     OH2      OT      -0.834000       15.9994           0
     22815 TIP3     1827     TIP3     H1       HT       0.417000       1.00800           0
     22816 TIP3     1827     TIP3     H2       HT       0.417000       1.00800           0
     22817 TIP3     1828     TIP3     OH2      OT      -0.834000       15.9994           0
     22818 TIP3     1828     TIP3     H1       HT       0.417000       1.00800           0
     22819 TIP3     1828     TIP3     H2       HT       0.417000       1.00800           0
     22820 TIP3     1829     TIP3     OH2      OT      -0.834000       15.9994           0
     22821 TIP3     1829     TIP3     H1       HT       0.417000       1.00800           0
     22822 TIP3     1829     TIP3     H2       HT       0.417000       1.00800           0
     22823 TIP3     1830     TIP3     OH2      OT      -0.834000       15.9994           0
     22824 TIP3     1830     TIP3     H1       HT       0.417000       1.00800           0
     22825 TIP3     1830     TIP3     H2       HT       0.417000       1.00800           0
     22826 TIP3     1831     TIP3     OH2      OT      -0.834000       15.9994           0
     22827 TIP3     1831     TIP3     H1       HT       0.417000       1.00800           0
     22828 TIP3     1831     TIP3     H2       HT       0.417000       1.00800           0
     22829 TIP3     1832     TIP3     OH2      OT      -0.834000       15.9994           0
     22830 TIP3     1832     TIP3     H1       HT       0.417000       1.00800           0
     22831 TIP3     1832     TIP3     H2       HT       0.417000       1.00800           0
     22832 TIP3     1833     TIP3     OH2      OT      -0.834000       15.9994           0
     22833 TIP3     1833     TIP3     H1       HT       0.417000       1.00800           0
     22834 TIP3     1833     TIP3     H2       HT       0.417000       1.00800           0
     22835 TIP3     1834     TIP3     OH2      OT      -0.834000       15.9994           0
     22836 TIP3     1834     TIP3     H1       HT       0.417000       1.00800           0
     22837 TIP3     1834     TIP3     H2       HT       0.417000       1.00800           0
     22838 TIP3     1835     TIP3     OH2      OT      -0.834000       15.9994           0
     22839 TIP3     1835     TIP3     H1       HT       0.417000       1.00800           0
     22840 TIP3     1835     TIP3     H2       HT       0.417000       1.00800           0
     22841 TIP3     1836     TIP3     OH2      OT      -0.834000       15.9994           0
     22842 TIP3     1836     TIP3     H1       HT       0.417000       1.00800           0
     22843 TIP3     1836     TIP3     H2       HT       0.417000       1.00800           0
     22844 TIP3     1837     TIP3     OH2      OT      -0.834000       15.9994           0
     22845 TIP3     1837     TIP3     H1       HT       0.417000       1.00800           0
     22846 TIP3     1837     TIP3     H2       HT       0.417000       1.00800           0
     22847 TIP3     1838     TIP3     OH2      OT      -0.834000       15.9994           0
     22848 TIP3     1838     TIP3     H1       HT       0.417000       1.00800           0
     22849 TIP3     1838     TIP3     H2       HT       0.417000       1.00800           0
     22850 TIP3     1839     TIP3     OH2      OT      -0.834000       15.9994           0
     22851 TIP3     1839     TIP3     H1       HT       0.417000       1.00800           0
     22852 TIP3     1839     TIP3     H2       HT       0.417000       1.00800           0
     22853 TIP3     1840     TIP3     OH2      OT      -0.834000       15.9994           0
     22854 TIP3     1840     TIP3     H1       HT       0.417000       1.00800           0
     22855 TIP3     1840     TIP3     H2       HT       0.417000       1.00800           0
     22856 TIP3     1841     TIP3     OH2      OT      -0.834000       15.9994           0
     22857 TIP3     1841     TIP3     H1       HT       0.417000       1.00800           0
     22858 TIP3     1841     TIP3     H2       HT       0.417000       1.00800           0
     22859 TIP3     1842     TIP3     OH2      OT      -0.834000       15.9994           0
     22860 TIP3     1842     TIP3     H1       HT       0.417000       1.00800           0
     22861 TIP3     1842     TIP3     H2       HT       0.417000       1.00800           0
     22862 TIP3     1843     TIP3     OH2      OT      -0.834000       15.9994           0
     22863 TIP3     1843     TIP3     H1       HT       0.417000       1.00800           0
     22864 TIP3     1843     TIP3     H2       HT       0.417000       1.00800           0
     22865 TIP3     1844     TIP3     OH2      OT      -0.834000       15.9994           0
     22866 TIP3     1844     TIP3     H1       HT       0.417000       1.00800           0
     22867 TIP3     1844     TIP3     H2       HT       0.417000       1.00800           0
     22868 TIP3     1845     TIP3     OH2      OT      -0.834000       15.9994           0
     22869 TIP3     1845     TIP3     H1       HT       0.417000       1.00800           0
     22870 TIP3     1845     TIP3     H2       HT       0.417000       1.00800           0
     22871 TIP3     1846     TIP3     OH2      OT      -0.834000       15.9994           0
     22872 TIP3     1846     TIP3     H1       HT       0.417000       1.00800           0
     22873 TIP3     1846     TIP3     H2       HT       0.417000       1.00800           0
     22874 TIP3     1847     TIP3     OH2      OT      -0.834000       15.9994           0
     22875 TIP3     1847     TIP3     H1       HT       0.417000       1.00800           0
     22876 TIP3     1847     TIP3     H2       HT       0.417000       1.00800           0
     22877 TIP3     1848     TIP3     OH2      OT      -0.834000       15.9994           0
     22878 TIP3     1848     TIP3     H1       HT       0.417000       1.00800           0
     22879 TIP3     1848     TIP3     H2       HT       0.417000       1.00800           0
     22880 TIP3     1849     TIP3     OH2      OT      -0.834000       15.9994           0
     22881 TIP3     1849     TIP3     H1       HT       0.417000       1.00800           0
     22882 TIP3     1849     TIP3     H2       HT       0.417000       1.00800           0
     22883 TIP3     1850     TIP3     OH2      OT      -0.834000       15.9994           0
     22884 TIP3     1850     TIP3     H1       HT       0.417000       1.00800           0
     22885 TIP3     1850     TIP3     H2       HT       0.417000       1.00800           0
     22886 TIP3     1851     TIP3     OH2      OT      -0.834000       15.9994           0
     22887 TIP3     1851     TIP3     H1       HT       0.417000       1.00800           0
     22888 TIP3     1851     TIP3     H2       HT       0.417000       1.00800           0
     22889 TIP3     1852     TIP3     OH2      OT      -0.834000       15.9994           0
     22890 TIP3     1852     TIP3     H1       HT       0.417000       1.00800           0
     22891 TIP3     1852     TIP3     H2       HT       0.417000       1.00800           0
     22892 TIP3     1853     TIP3     OH2      OT      -0.834000       15.9994           0
     22893 TIP3     1853     TIP3     H1       HT       0.417000       1.00800           0
     22894 TIP3     1853     TIP3     H2       HT       0.417000       1.00800           0
     22895 TIP3     1854     TIP3     OH2      OT      -0.834000       15.9994           0
     22896 TIP3     1854     TIP3     H1       HT       0.417000       1.00800           0
     22897 TIP3     1854     TIP3     H2       HT       0.417000       1.00800           0
     22898 TIP3     1855     TIP3     OH2      OT      -0.834000       15.9994           0
     22899 TIP3     1855     TIP3     H1       HT       0.417000       1.00800           0
     22900 TIP3     1855     TIP3     H2       HT       0.417000       1.00800           0
     22901 TIP3     1856     TIP3     OH2      OT      -0.834000       15.9994           0
     22902 TIP3     1856     TIP3     H1       HT       0.417000       1.00800           0
     22903 TIP3     1856     TIP3     H2       HT       0.417000       1.00800           0
     22904 TIP3     1857     TIP3     OH2      OT      -0.834000       15.9994           0
     22905 TIP3     1857     TIP3     H1       HT       0.417000       1.00800           0
     22906 TIP3     1857     TIP3     H2       HT       0.417000       1.00800           0
     22907 TIP3     1858     TIP3     OH2      OT      -0.834000       15.9994           0
     22908 TIP3     1858     TIP3     H1       HT       0.417000       1.00800           0
     22909 TIP3     1858     TIP3     H2       HT       0.417000       1.00800           0
     22910 TIP3     1859     TIP3     OH2      OT      -0.834000       15.9994           0
     22911 TIP3     1859     TIP3     H1       HT       0.417000       1.00800           0
     22912 TIP3     1859     TIP3     H2       HT       0.417000       1.00800           0
     22913 TIP3     1860     TIP3     OH2      OT      -0.834000       15.9994           0
     22914 TIP3     1860     TIP3     H1       HT       0.417000       1.00800           0
     22915 TIP3     1860     TIP3     H2       HT       0.417000       1.00800           0
     22916 TIP3     1861     TIP3     OH2      OT      -0.834000       15.9994           0
     22917 TIP3     1861     TIP3     H1       HT       0.417000       1.00800           0
     22918 TIP3     1861     TIP3     H2       HT       0.417000       1.00800           0
     22919 TIP3     1862     TIP3     OH2      OT      -0.834000       15.9994           0
     22920 TIP3     1862     TIP3     H1       HT       0.417000       1.00800           0
     22921 TIP3     1862     TIP3     H2       HT       0.417000       1.00800           0
     22922 TIP3     1863     TIP3     OH2      OT      -0.834000       15.9994           0
     22923 TIP3     1863     TIP3     H1       HT       0.417000       1.00800           0
     22924 TIP3     1863     TIP3     H2       HT       0.417000       1.00800           0
     22925 TIP3     1864     TIP3     OH2      OT      -0.834000       15.9994           0
     22926 TIP3     1864     TIP3     H1       HT       0.417000       1.00800           0
     22927 TIP3     1864     TIP3     H2       HT       0.417000       1.00800           0
     22928 TIP3     1865     TIP3     OH2      OT      -0.834000       15.9994           0
     22929 TIP3     1865     TIP3     H1       HT       0.417000       1.00800           0
     22930 TIP3     1865     TIP3     H2       HT       0.417000       1.00800           0
     22931 TIP3     1866     TIP3     OH2      OT      -0.834000       15.9994           0
     22932 TIP3     1866     TIP3     H1       HT       0.417000       1.00800           0
     22933 TIP3     1866     TIP3     H2       HT       0.417000       1.00800           0
     22934 TIP3     1867     TIP3     OH2      OT      -0.834000       15.9994           0
     22935 TIP3     1867     TIP3     H1       HT       0.417000       1.00800           0
     22936 TIP3     1867     TIP3     H2       HT       0.417000       1.00800           0
     22937 TIP3     1868     TIP3     OH2      OT      -0.834000       15.9994           0
     22938 TIP3     1868     TIP3     H1       HT       0.417000       1.00800           0
     22939 TIP3     1868     TIP3     H2       HT       0.417000       1.00800           0
     22940 TIP3     1869     TIP3     OH2      OT      -0.834000       15.9994           0
     22941 TIP3     1869     TIP3     H1       HT       0.417000       1.00800           0
     22942 TIP3     1869     TIP3     H2       HT       0.417000       1.00800           0
     22943 TIP3     1870     TIP3     OH2      OT      -0.834000       15.9994           0
     22944 TIP3     1870     TIP3     H1       HT       0.417000       1.00800           0
     22945 TIP3     1870     TIP3     H2       HT       0.417000       1.00800           0
     22946 TIP3     1871     TIP3     OH2      OT      -0.834000       15.9994           0
     22947 TIP3     1871     TIP3     H1       HT       0.417000       1.00800           0
     22948 TIP3     1871     TIP3     H2       HT       0.417000       1.00800           0
     22949 TIP3     1872     TIP3     OH2      OT      -0.834000       15.9994           0
     22950 TIP3     1872     TIP3     H1       HT       0.417000       1.00800           0
     22951 TIP3     1872     TIP3     H2       HT       0.417000       1.00800           0
     22952 TIP3     1873     TIP3     OH2      OT      -0.834000       15.9994           0
     22953 TIP3     1873     TIP3     H1       HT       0.417000       1.00800           0
     22954 TIP3     1873     TIP3     H2       HT       0.417000       1.00800           0
     22955 TIP3     1874     TIP3     OH2      OT      -0.834000       15.9994           0
     22956 TIP3     1874     TIP3     H1       HT       0.417000       1.00800           0
     22957 TIP3     1874     TIP3     H2       HT       0.417000       1.00800           0
     22958 TIP3     1875     TIP3     OH2      OT      -0.834000       15.9994           0
     22959 TIP3     1875     TIP3     H1       HT       0.417000       1.00800           0
     22960 TIP3     1875     TIP3     H2       HT       0.417000       1.00800           0
     22961 TIP3     1876     TIP3     OH2      OT      -0.834000       15.9994           0
     22962 TIP3     1876     TIP3     H1       HT       0.417000       1.00800           0
     22963 TIP3     1876     TIP3     H2       HT       0.417000       1.00800           0
     22964 TIP3     1877     TIP3     OH2      OT      -0.834000       15.9994           0
     22965 TIP3     1877     TIP3     H1       HT       0.417000       1.00800           0
     22966 TIP3     1877     TIP3     H2       HT       0.417000       1.00800           0
     22967 TIP3     1878     TIP3     OH2      OT      -0.834000       15.9994           0
     22968 TIP3     1878     TIP3     H1       HT       0.417000       1.00800           0
     22969 TIP3     1878     TIP3     H2       HT       0.417000       1.00800           0
     22970 TIP3     1879     TIP3     OH2      OT      -0.834000       15.9994           0
     22971 TIP3     1879     TIP3     H1       HT       0.417000       1.00800           0
     22972 TIP3     1879     TIP3     H2       HT       0.417000       1.00800           0
     22973 TIP3     1880     TIP3     OH2      OT      -0.834000       15.9994           0
     22974 TIP3     1880     TIP3     H1       HT       0.417000       1.00800           0
     22975 TIP3     1880     TIP3     H2       HT       0.417000       1.00800           0
     22976 TIP3     1881     TIP3     OH2      OT      -0.834000       15.9994           0
     22977 TIP3     1881     TIP3     H1       HT       0.417000       1.00800           0
     22978 TIP3     1881     TIP3     H2       HT       0.417000       1.00800           0
     22979 TIP3     1882     TIP3     OH2      OT      -0.834000       15.9994           0
     22980 TIP3     1882     TIP3     H1       HT       0.417000       1.00800           0
     22981 TIP3     1882     TIP3     H2       HT       0.417000       1.00800           0
     22982 TIP3     1883     TIP3     OH2      OT      -0.834000       15.9994           0
     22983 TIP3     1883     TIP3     H1       HT       0.417000       1.00800           0
     22984 TIP3     1883     TIP3     H2       HT       0.417000       1.00800           0
     22985 TIP3     1884     TIP3     OH2      OT      -0.834000       15.9994           0
     22986 TIP3     1884     TIP3     H1       HT       0.417000       1.00800           0
     22987 TIP3     1884     TIP3     H2       HT       0.417000       1.00800           0
     22988 TIP3     1885     TIP3     OH2      OT      -0.834000       15.9994           0
     22989 TIP3     1885     TIP3     H1       HT       0.417000       1.00800           0
     22990 TIP3     1885     TIP3     H2       HT       0.417000       1.00800           0
     22991 TIP3     1886     TIP3     OH2      OT      -0.834000       15.9994           0
     22992 TIP3     1886     TIP3     H1       HT       0.417000       1.00800           0
     22993 TIP3     1886     TIP3     H2       HT       0.417000       1.00800           0
     22994 TIP3     1887     TIP3     OH2      OT      -0.834000       15.9994           0
     22995 TIP3     1887     TIP3     H1       HT       0.417000       1.00800           0
     22996 TIP3     1887     TIP3     H2       HT       0.417000       1.00800           0
     22997 TIP3     1888     TIP3     OH2      OT      -0.834000       15.9994           0
     22998 TIP3     1888     TIP3     H1       HT       0.417000       1.00800           0
     22999 TIP3     1888     TIP3     H2       HT       0.417000       1.00800           0
     23000 TIP3     1889     TIP3     OH2      OT      -0.834000       15.9994           0
     23001 TIP3     1889     TIP3     H1       HT       0.417000       1.00800           0
     23002 TIP3     1889     TIP3     H2       HT       0.417000       1.00800           0
     23003 TIP3     1890     TIP3     OH2      OT      -0.834000       15.9994           0
     23004 TIP3     1890     TIP3     H1       HT       0.417000       1.00800           0
     23005 TIP3     1890     TIP3     H2       HT       0.417000       1.00800           0
     23006 TIP3     1891     TIP3     OH2      OT      -0.834000       15.9994           0
     23007 TIP3     1891     TIP3     H1       HT       0.417000       1.00800           0
     23008 TIP3     1891     TIP3     H2       HT       0.417000       1.00800           0
     23009 TIP3     1892     TIP3     OH2      OT      -0.834000       15.9994           0
     23010 TIP3     1892     TIP3     H1       HT       0.417000       1.00800           0
     23011 TIP3     1892     TIP3     H2       HT       0.417000       1.00800           0
     23012 TIP3     1893     TIP3     OH2      OT      -0.834000       15.9994           0
     23013 TIP3     1893     TIP3     H1       HT       0.417000       1.00800           0
     23014 TIP3     1893     TIP3     H2       HT       0.417000       1.00800           0
     23015 TIP3     1894     TIP3     OH2      OT      -0.834000       15.9994           0
     23016 TIP3     1894     TIP3     H1       HT       0.417000       1.00800           0
     23017 TIP3     1894     TIP3     H2       HT       0.417000       1.00800           0
     23018 TIP3     1895     TIP3     OH2      OT      -0.834000       15.9994           0
     23019 TIP3     1895     TIP3     H1       HT       0.417000       1.00800           0
     23020 TIP3     1895     TIP3     H2       HT       0.417000       1.00800           0
     23021 TIP3     1896     TIP3     OH2      OT      -0.834000       15.9994           0
     23022 TIP3     1896     TIP3     H1       HT       0.417000       1.00800           0
     23023 TIP3     1896     TIP3     H2       HT       0.417000       1.00800           0
     23024 TIP3     1897     TIP3     OH2      OT      -0.834000       15.9994           0
     23025 TIP3     1897     TIP3     H1       HT       0.417000       1.00800           0
     23026 TIP3     1897     TIP3     H2       HT       0.417000       1.00800           0
     23027 TIP3     1898     TIP3     OH2      OT      -0.834000       15.9994           0
     23028 TIP3     1898     TIP3     H1       HT       0.417000       1.00800           0
     23029 TIP3     1898     TIP3     H2       HT       0.417000       1.00800           0
     23030 TIP3     1899     TIP3     OH2      OT      -0.834000       15.9994           0
     23031 TIP3     1899     TIP3     H1       HT       0.417000       1.00800           0
     23032 TIP3     1899     TIP3     H2       HT       0.417000       1.00800           0
     23033 TIP3     1900     TIP3     OH2      OT      -0.834000       15.9994           0
     23034 TIP3     1900     TIP3     H1       HT       0.417000       1.00800           0
     23035 TIP3     1900     TIP3     H2       HT       0.417000       1.00800           0
     23036 TIP3     1901     TIP3     OH2      OT      -0.834000       15.9994           0
     23037 TIP3     1901     TIP3     H1       HT       0.417000       1.00800           0
     23038 TIP3     1901     TIP3     H2       HT       0.417000       1.00800           0
     23039 TIP3     1902     TIP3     OH2      OT      -0.834000       15.9994           0
     23040 TIP3     1902     TIP3     H1       HT       0.417000       1.00800           0
     23041 TIP3     1902     TIP3     H2       HT       0.417000       1.00800           0
     23042 TIP3     1903     TIP3     OH2      OT      -0.834000       15.9994           0
     23043 TIP3     1903     TIP3     H1       HT       0.417000       1.00800           0
     23044 TIP3     1903     TIP3     H2       HT       0.417000       1.00800           0
     23045 TIP3     1904     TIP3     OH2      OT      -0.834000       15.9994           0
     23046 TIP3     1904     TIP3     H1       HT       0.417000       1.00800           0
     23047 TIP3     1904     TIP3     H2       HT       0.417000       1.00800           0
     23048 TIP3     1905     TIP3     OH2      OT      -0.834000       15.9994           0
     23049 TIP3     1905     TIP3     H1       HT       0.417000       1.00800           0
     23050 TIP3     1905     TIP3     H2       HT       0.417000       1.00800           0
     23051 TIP3     1906     TIP3     OH2      OT      -0.834000       15.9994           0
     23052 TIP3     1906     TIP3     H1       HT       0.417000       1.00800           0
     23053 TIP3     1906     TIP3     H2       HT       0.417000       1.00800           0
     23054 TIP3     1907     TIP3     OH2      OT      -0.834000       15.9994           0
     23055 TIP3     1907     TIP3     H1       HT       0.417000       1.00800           0
     23056 TIP3     1907     TIP3     H2       HT       0.417000       1.00800           0
     23057 TIP3     1908     TIP3     OH2      OT      -0.834000       15.9994           0
     23058 TIP3     1908     TIP3     H1       HT       0.417000       1.00800           0
     23059 TIP3     1908     TIP3     H2       HT       0.417000       1.00800           0
     23060 TIP3     1909     TIP3     OH2      OT      -0.834000       15.9994           0
     23061 TIP3     1909     TIP3     H1       HT       0.417000       1.00800           0
     23062 TIP3     1909     TIP3     H2       HT       0.417000       1.00800           0
     23063 TIP3     1910     TIP3     OH2      OT      -0.834000       15.9994           0
     23064 TIP3     1910     TIP3     H1       HT       0.417000       1.00800           0
     23065 TIP3     1910     TIP3     H2       HT       0.417000       1.00800           0
     23066 TIP3     1911     TIP3     OH2      OT      -0.834000       15.9994           0
     23067 TIP3     1911     TIP3     H1       HT       0.417000       1.00800           0
     23068 TIP3     1911     TIP3     H2       HT       0.417000       1.00800           0
     23069 TIP3     1912     TIP3     OH2      OT      -0.834000       15.9994           0
     23070 TIP3     1912     TIP3     H1       HT       0.417000       1.00800           0
     23071 TIP3     1912     TIP3     H2       HT       0.417000       1.00800           0
     23072 TIP3     1913     TIP3     OH2      OT      -0.834000       15.9994           0
     23073 TIP3     1913     TIP3     H1       HT       0.417000       1.00800           0
     23074 TIP3     1913     TIP3     H2       HT       0.417000       1.00800           0
     23075 TIP3     1914     TIP3     OH2      OT      -0.834000       15.9994           0
     23076 TIP3     1914     TIP3     H1       HT       0.417000       1.00800           0
     23077 TIP3     1914     TIP3     H2       HT       0.417000       1.00800           0
     23078 TIP3     1915     TIP3     OH2      OT      -0.834000       15.9994           0
     23079 TIP3     1915     TIP3     H1       HT       0.417000       1.00800           0
     23080 TIP3     1915     TIP3     H2       HT       0.417000       1.00800           0
     23081 TIP3     1916     TIP3     OH2      OT      -0.834000       15.9994           0
     23082 TIP3     1916     TIP3     H1       HT       0.417000       1.00800           0
     23083 TIP3     1916     TIP3     H2       HT       0.417000       1.00800           0
     23084 TIP3     1917     TIP3     OH2      OT      -0.834000       15.9994           0
     23085 TIP3     1917     TIP3     H1       HT       0.417000       1.00800           0
     23086 TIP3     1917     TIP3     H2       HT       0.417000       1.00800           0
     23087 TIP3     1918     TIP3     OH2      OT      -0.834000       15.9994           0
     23088 TIP3     1918     TIP3     H1       HT       0.417000       1.00800           0
     23089 TIP3     1918     TIP3     H2       HT       0.417000       1.00800           0
     23090 TIP3     1919     TIP3     OH2      OT      -0.834000       15.9994           0
     23091 TIP3     1919     TIP3     H1       HT       0.417000       1.00800           0
     23092 TIP3     1919     TIP3     H2       HT       0.417000       1.00800           0
     23093 TIP3     1920     TIP3     OH2      OT      -0.834000       15.9994           0
     23094 TIP3     1920     TIP3     H1       HT       0.417000       1.00800           0
     23095 TIP3     1920     TIP3     H2       HT       0.417000       1.00800           0
     23096 TIP3     1921     TIP3     OH2      OT      -0.834000       15.9994           0
     23097 TIP3     1921     TIP3     H1       HT       0.417000       1.00800           0
     23098 TIP3     1921     TIP3     H2       HT       0.417000       1.00800           0
     23099 TIP3     1922     TIP3     OH2      OT      -0.834000       15.9994           0
     23100 TIP3     1922     TIP3     H1       HT       0.417000       1.00800           0
     23101 TIP3     1922     TIP3     H2       HT       0.417000       1.00800           0
     23102 TIP3     1923     TIP3     OH2      OT      -0.834000       15.9994           0
     23103 TIP3     1923     TIP3     H1       HT       0.417000       1.00800           0
     23104 TIP3     1923     TIP3     H2       HT       0.417000       1.00800           0
     23105 TIP3     1924     TIP3     OH2      OT      -0.834000       15.9994           0
     23106 TIP3     1924     TIP3     H1       HT       0.417000       1.00800           0
     23107 TIP3     1924     TIP3     H2       HT       0.417000       1.00800           0
     23108 TIP3     1925     TIP3     OH2      OT      -0.834000       15.9994           0
     23109 TIP3     1925     TIP3     H1       HT       0.417000       1.00800           0
     23110 TIP3     1925     TIP3     H2       HT       0.417000       1.00800           0
     23111 TIP3     1926     TIP3     OH2      OT      -0.834000       15.9994           0
     23112 TIP3     1926     TIP3     H1       HT       0.417000       1.00800           0
     23113 TIP3     1926     TIP3     H2       HT       0.417000       1.00800           0
     23114 TIP3     1927     TIP3     OH2      OT      -0.834000       15.9994           0
     23115 TIP3     1927     TIP3     H1       HT       0.417000       1.00800           0
     23116 TIP3     1927     TIP3     H2       HT       0.417000       1.00800           0
     23117 TIP3     1928     TIP3     OH2      OT      -0.834000       15.9994           0
     23118 TIP3     1928     TIP3     H1       HT       0.417000       1.00800           0
     23119 TIP3     1928     TIP3     H2       HT       0.417000       1.00800           0
     23120 TIP3     1929     TIP3     OH2      OT      -0.834000       15.9994           0
     23121 TIP3     1929     TIP3     H1       HT       0.417000       1.00800           0
     23122 TIP3     1929     TIP3     H2       HT       0.417000       1.00800           0
     23123 TIP3     1930     TIP3     OH2      OT      -0.834000       15.9994           0
     23124 TIP3     1930     TIP3     H1       HT       0.417000       1.00800           0
     23125 TIP3     1930     TIP3     H2       HT       0.417000       1.00800           0
     23126 TIP3     1931     TIP3     OH2      OT      -0.834000       15.9994           0
     23127 TIP3     1931     TIP3     H1       HT       0.417000       1.00800           0
     23128 TIP3     1931     TIP3     H2       HT       0.417000       1.00800           0
     23129 TIP3     1932     TIP3     OH2      OT      -0.834000       15.9994           0
     23130 TIP3     1932     TIP3     H1       HT       0.417000       1.00800           0
     23131 TIP3     1932     TIP3     H2       HT       0.417000       1.00800           0
     23132 TIP3     1933     TIP3     OH2      OT      -0.834000       15.9994           0
     23133 TIP3     1933     TIP3     H1       HT       0.417000       1.00800           0
     23134 TIP3     1933     TIP3     H2       HT       0.417000       1.00800           0
     23135 TIP3     1934     TIP3     OH2      OT      -0.834000       15.9994           0
     23136 TIP3     1934     TIP3     H1       HT       0.417000       1.00800           0
     23137 TIP3     1934     TIP3     H2       HT       0.417000       1.00800           0
     23138 TIP3     1935     TIP3     OH2      OT      -0.834000       15.9994           0
     23139 TIP3     1935     TIP3     H1       HT       0.417000       1.00800           0
     23140 TIP3     1935     TIP3     H2       HT       0.417000       1.00800           0
     23141 TIP3     1936     TIP3     OH2      OT      -0.834000       15.9994           0
     23142 TIP3     1936     TIP3     H1       HT       0.417000       1.00800           0
     23143 TIP3     1936     TIP3     H2       HT       0.417000       1.00800           0
     23144 TIP3     1937     TIP3     OH2      OT      -0.834000       15.9994           0
     23145 TIP3     1937     TIP3     H1       HT       0.417000       1.00800           0
     23146 TIP3     1937     TIP3     H2       HT       0.417000       1.00800           0
     23147 TIP3     1938     TIP3     OH2      OT      -0.834000       15.9994           0
     23148 TIP3     1938     TIP3     H1       HT       0.417000       1.00800           0
     23149 TIP3     1938     TIP3     H2       HT       0.417000       1.00800           0
     23150 TIP3     1939     TIP3     OH2      OT      -0.834000       15.9994           0
     23151 TIP3     1939     TIP3     H1       HT       0.417000       1.00800           0
     23152 TIP3     1939     TIP3     H2       HT       0.417000       1.00800           0
     23153 TIP3     1940     TIP3     OH2      OT      -0.834000       15.9994           0
     23154 TIP3     1940     TIP3     H1       HT       0.417000       1.00800           0
     23155 TIP3     1940     TIP3     H2       HT       0.417000       1.00800           0
     23156 TIP3     1941     TIP3     OH2      OT      -0.834000       15.9994           0
     23157 TIP3     1941     TIP3     H1       HT       0.417000       1.00800           0
     23158 TIP3     1941     TIP3     H2       HT       0.417000       1.00800           0
     23159 TIP3     1942     TIP3     OH2      OT      -0.834000       15.9994           0
     23160 TIP3     1942     TIP3     H1       HT       0.417000       1.00800           0
     23161 TIP3     1942     TIP3     H2       HT       0.417000       1.00800           0
     23162 TIP3     1943     TIP3     OH2      OT      -0.834000       15.9994           0
     23163 TIP3     1943     TIP3     H1       HT       0.417000       1.00800           0
     23164 TIP3     1943     TIP3     H2       HT       0.417000       1.00800           0
     23165 TIP3     1944     TIP3     OH2      OT      -0.834000       15.9994           0
     23166 TIP3     1944     TIP3     H1       HT       0.417000       1.00800           0
     23167 TIP3     1944     TIP3     H2       HT       0.417000       1.00800           0
     23168 TIP3     1945     TIP3     OH2      OT      -0.834000       15.9994           0
     23169 TIP3     1945     TIP3     H1       HT       0.417000       1.00800           0
     23170 TIP3     1945     TIP3     H2       HT       0.417000       1.00800           0
     23171 TIP3     1946     TIP3     OH2      OT      -0.834000       15.9994           0
     23172 TIP3     1946     TIP3     H1       HT       0.417000       1.00800           0
     23173 TIP3     1946     TIP3     H2       HT       0.417000       1.00800           0
     23174 TIP3     1947     TIP3     OH2      OT      -0.834000       15.9994           0
     23175 TIP3     1947     TIP3     H1       HT       0.417000       1.00800           0
     23176 TIP3     1947     TIP3     H2       HT       0.417000       1.00800           0
     23177 TIP3     1948     TIP3     OH2      OT      -0.834000       15.9994           0
     23178 TIP3     1948     TIP3     H1       HT       0.417000       1.00800           0
     23179 TIP3     1948     TIP3     H2       HT       0.417000       1.00800           0
     23180 TIP3     1949     TIP3     OH2      OT      -0.834000       15.9994           0
     23181 TIP3     1949     TIP3     H1       HT       0.417000       1.00800           0
     23182 TIP3     1949     TIP3     H2       HT       0.417000       1.00800           0
     23183 TIP3     1950     TIP3     OH2      OT      -0.834000       15.9994           0
     23184 TIP3     1950     TIP3     H1       HT       0.417000       1.00800           0
     23185 TIP3     1950     TIP3     H2       HT       0.417000       1.00800           0
     23186 TIP3     1951     TIP3     OH2      OT      -0.834000       15.9994           0
     23187 TIP3     1951     TIP3     H1       HT       0.417000       1.00800           0
     23188 TIP3     1951     TIP3     H2       HT       0.417000       1.00800           0
     23189 TIP3     1952     TIP3     OH2      OT      -0.834000       15.9994           0
     23190 TIP3     1952     TIP3     H1       HT       0.417000       1.00800           0
     23191 TIP3     1952     TIP3     H2       HT       0.417000       1.00800           0
     23192 TIP3     1953     TIP3     OH2      OT      -0.834000       15.9994           0
     23193 TIP3     1953     TIP3     H1       HT       0.417000       1.00800           0
     23194 TIP3     1953     TIP3     H2       HT       0.417000       1.00800           0
     23195 TIP3     1954     TIP3     OH2      OT      -0.834000       15.9994           0
     23196 TIP3     1954     TIP3     H1       HT       0.417000       1.00800           0
     23197 TIP3     1954     TIP3     H2       HT       0.417000       1.00800           0
     23198 TIP3     1955     TIP3     OH2      OT      -0.834000       15.9994           0
     23199 TIP3     1955     TIP3     H1       HT       0.417000       1.00800           0
     23200 TIP3     1955     TIP3     H2       HT       0.417000       1.00800           0
     23201 TIP3     1956     TIP3     OH2      OT      -0.834000       15.9994           0
     23202 TIP3     1956     TIP3     H1       HT       0.417000       1.00800           0
     23203 TIP3     1956     TIP3     H2       HT       0.417000       1.00800           0
     23204 TIP3     1957     TIP3     OH2      OT      -0.834000       15.9994           0
     23205 TIP3     1957     TIP3     H1       HT       0.417000       1.00800           0
     23206 TIP3     1957     TIP3     H2       HT       0.417000       1.00800           0
     23207 TIP3     1958     TIP3     OH2      OT      -0.834000       15.9994           0
     23208 TIP3     1958     TIP3     H1       HT       0.417000       1.00800           0
     23209 TIP3     1958     TIP3     H2       HT       0.417000       1.00800           0
     23210 TIP3     1959     TIP3     OH2      OT      -0.834000       15.9994           0
     23211 TIP3     1959     TIP3     H1       HT       0.417000       1.00800           0
     23212 TIP3     1959     TIP3     H2       HT       0.417000       1.00800           0
     23213 TIP3     1960     TIP3     OH2      OT      -0.834000       15.9994           0
     23214 TIP3     1960     TIP3     H1       HT       0.417000       1.00800           0
     23215 TIP3     1960     TIP3     H2       HT       0.417000       1.00800           0
     23216 TIP3     1961     TIP3     OH2      OT      -0.834000       15.9994           0
     23217 TIP3     1961     TIP3     H1       HT       0.417000       1.00800           0
     23218 TIP3     1961     TIP3     H2       HT       0.417000       1.00800           0
     23219 TIP3     1962     TIP3     OH2      OT      -0.834000       15.9994           0
     23220 TIP3     1962     TIP3     H1       HT       0.417000       1.00800           0
     23221 TIP3     1962     TIP3     H2       HT       0.417000       1.00800           0
     23222 TIP3     1963     TIP3     OH2      OT      -0.834000       15.9994           0
     23223 TIP3     1963     TIP3     H1       HT       0.417000       1.00800           0
     23224 TIP3     1963     TIP3     H2       HT       0.417000       1.00800           0
     23225 TIP3     1964     TIP3     OH2      OT      -0.834000       15.9994           0
     23226 TIP3     1964     TIP3     H1       HT       0.417000       1.00800           0
     23227 TIP3     1964     TIP3     H2       HT       0.417000       1.00800           0
     23228 TIP3     1965     TIP3     OH2      OT      -0.834000       15.9994           0
     23229 TIP3     1965     TIP3     H1       HT       0.417000       1.00800           0
     23230 TIP3     1965     TIP3     H2       HT       0.417000       1.00800           0
     23231 TIP3     1966     TIP3     OH2      OT      -0.834000       15.9994           0
     23232 TIP3     1966     TIP3     H1       HT       0.417000       1.00800           0
     23233 TIP3     1966     TIP3     H2       HT       0.417000       1.00800           0
     23234 TIP3     1967     TIP3     OH2      OT      -0.834000       15.9994           0
     23235 TIP3     1967     TIP3     H1       HT       0.417000       1.00800           0
     23236 TIP3     1967     TIP3     H2       HT       0.417000       1.00800           0
     23237 TIP3     1968     TIP3     OH2      OT      -0.834000       15.9994           0
     23238 TIP3     1968     TIP3     H1       HT       0.417000       1.00800           0
     23239 TIP3     1968     TIP3     H2       HT       0.417000       1.00800           0
     23240 TIP3     1969     TIP3     OH2      OT      -0.834000       15.9994           0
     23241 TIP3     1969     TIP3     H1       HT       0.417000       1.00800           0
     23242 TIP3     1969     TIP3     H2       HT       0.417000       1.00800           0
     23243 TIP3     1970     TIP3     OH2      OT      -0.834000       15.9994           0
     23244 TIP3     1970     TIP3     H1       HT       0.417000       1.00800           0
     23245 TIP3     1970     TIP3     H2       HT       0.417000       1.00800           0
     23246 TIP3     1971     TIP3     OH2      OT      -0.834000       15.9994           0
     23247 TIP3     1971     TIP3     H1       HT       0.417000       1.00800           0
     23248 TIP3     1971     TIP3     H2       HT       0.417000       1.00800           0
     23249 TIP3     1972     TIP3     OH2      OT      -0.834000       15.9994           0
     23250 TIP3     1972     TIP3     H1       HT       0.417000       1.00800           0
     23251 TIP3     1972     TIP3     H2       HT       0.417000       1.00800           0
     23252 TIP3     1973     TIP3     OH2      OT      -0.834000       15.9994           0
     23253 TIP3     1973     TIP3     H1       HT       0.417000       1.00800           0
     23254 TIP3     1973     TIP3     H2       HT       0.417000       1.00800           0
     23255 TIP3     1974     TIP3     OH2      OT      -0.834000       15.9994           0
     23256 TIP3     1974     TIP3     H1       HT       0.417000       1.00800           0
     23257 TIP3     1974     TIP3     H2       HT       0.417000       1.00800           0
     23258 TIP3     1975     TIP3     OH2      OT      -0.834000       15.9994           0
     23259 TIP3     1975     TIP3     H1       HT       0.417000       1.00800           0
     23260 TIP3     1975     TIP3     H2       HT       0.417000       1.00800           0
     23261 TIP3     1976     TIP3     OH2      OT      -0.834000       15.9994           0
     23262 TIP3     1976     TIP3     H1       HT       0.417000       1.00800           0
     23263 TIP3     1976     TIP3     H2       HT       0.417000       1.00800           0
     23264 TIP3     1977     TIP3     OH2      OT      -0.834000       15.9994           0
     23265 TIP3     1977     TIP3     H1       HT       0.417000       1.00800           0
     23266 TIP3     1977     TIP3     H2       HT       0.417000       1.00800           0
     23267 TIP3     1978     TIP3     OH2      OT      -0.834000       15.9994           0
     23268 TIP3     1978     TIP3     H1       HT       0.417000       1.00800           0
     23269 TIP3     1978     TIP3     H2       HT       0.417000       1.00800           0
     23270 TIP3     1979     TIP3     OH2      OT      -0.834000       15.9994           0
     23271 TIP3     1979     TIP3     H1       HT       0.417000       1.00800           0
     23272 TIP3     1979     TIP3     H2       HT       0.417000       1.00800           0
     23273 TIP3     1980     TIP3     OH2      OT      -0.834000       15.9994           0
     23274 TIP3     1980     TIP3     H1       HT       0.417000       1.00800           0
     23275 TIP3     1980     TIP3     H2       HT       0.417000       1.00800           0
     23276 TIP3     1981     TIP3     OH2      OT      -0.834000       15.9994           0
     23277 TIP3     1981     TIP3     H1       HT       0.417000       1.00800           0
     23278 TIP3     1981     TIP3     H2       HT       0.417000       1.00800           0
     23279 TIP3     1982     TIP3     OH2      OT      -0.834000       15.9994           0
     23280 TIP3     1982     TIP3     H1       HT       0.417000       1.00800           0
     23281 TIP3     1982     TIP3     H2       HT       0.417000       1.00800           0
     23282 TIP3     1983     TIP3     OH2      OT      -0.834000       15.9994           0
     23283 TIP3     1983     TIP3     H1       HT       0.417000       1.00800           0
     23284 TIP3     1983     TIP3     H2       HT       0.417000       1.00800           0
     23285 TIP3     1984     TIP3     OH2      OT      -0.834000       15.9994           0
     23286 TIP3     1984     TIP3     H1       HT       0.417000       1.00800           0
     23287 TIP3     1984     TIP3     H2       HT       0.417000       1.00800           0
     23288 TIP3     1985     TIP3     OH2      OT      -0.834000       15.9994           0
     23289 TIP3     1985     TIP3     H1       HT       0.417000       1.00800           0
     23290 TIP3     1985     TIP3     H2       HT       0.417000       1.00800           0
     23291 TIP3     1986     TIP3     OH2      OT      -0.834000       15.9994           0
     23292 TIP3     1986     TIP3     H1       HT       0.417000       1.00800           0
     23293 TIP3     1986     TIP3     H2       HT       0.417000       1.00800           0
     23294 TIP3     1987     TIP3     OH2      OT      -0.834000       15.9994           0
     23295 TIP3     1987     TIP3     H1       HT       0.417000       1.00800           0
     23296 TIP3     1987     TIP3     H2       HT       0.417000       1.00800           0
     23297 TIP3     1988     TIP3     OH2      OT      -0.834000       15.9994           0
     23298 TIP3     1988     TIP3     H1       HT       0.417000       1.00800           0
     23299 TIP3     1988     TIP3     H2       HT       0.417000       1.00800           0
     23300 TIP3     1989     TIP3     OH2      OT      -0.834000       15.9994           0
     23301 TIP3     1989     TIP3     H1       HT       0.417000       1.00800           0
     23302 TIP3     1989     TIP3     H2       HT       0.417000       1.00800           0
     23303 TIP3     1990     TIP3     OH2      OT      -0.834000       15.9994           0
     23304 TIP3     1990     TIP3     H1       HT       0.417000       1.00800           0
     23305 TIP3     1990     TIP3     H2       HT       0.417000       1.00800           0
     23306 TIP3     1991     TIP3     OH2      OT      -0.834000       15.9994           0
     23307 TIP3     1991     TIP3     H1       HT       0.417000       1.00800           0
     23308 TIP3     1991     TIP3     H2       HT       0.417000       1.00800           0
     23309 TIP3     1992     TIP3     OH2      OT      -0.834000       15.9994           0
     23310 TIP3     1992     TIP3     H1       HT       0.417000       1.00800           0
     23311 TIP3     1992     TIP3     H2       HT       0.417000       1.00800           0
     23312 TIP3     1993     TIP3     OH2      OT      -0.834000       15.9994           0
     23313 TIP3     1993     TIP3     H1       HT       0.417000       1.00800           0
     23314 TIP3     1993     TIP3     H2       HT       0.417000       1.00800           0
     23315 TIP3     1994     TIP3     OH2      OT      -0.834000       15.9994           0
     23316 TIP3     1994     TIP3     H1       HT       0.417000       1.00800           0
     23317 TIP3     1994     TIP3     H2       HT       0.417000       1.00800           0
     23318 TIP3     1995     TIP3     OH2      OT      -0.834000       15.9994           0
     23319 TIP3     1995     TIP3     H1       HT       0.417000       1.00800           0
     23320 TIP3     1995     TIP3     H2       HT       0.417000       1.00800           0
     23321 TIP3     1996     TIP3     OH2      OT      -0.834000       15.9994           0
     23322 TIP3     1996     TIP3     H1       HT       0.417000       1.00800           0
     23323 TIP3     1996     TIP3     H2       HT       0.417000       1.00800           0
     23324 TIP3     1997     TIP3     OH2      OT      -0.834000       15.9994           0
     23325 TIP3     1997     TIP3     H1       HT       0.417000       1.00800           0
     23326 TIP3     1997     TIP3     H2       HT       0.417000       1.00800           0
     23327 TIP3     1998     TIP3     OH2      OT      -0.834000       15.9994           0
     23328 TIP3     1998     TIP3     H1       HT       0.417000       1.00800           0
     23329 TIP3     1998     TIP3     H2       HT       0.417000       1.00800           0
     23330 TIP3     1999     TIP3     OH2      OT      -0.834000       15.9994           0
     23331 TIP3     1999     TIP3     H1       HT       0.417000       1.00800           0
     23332 TIP3     1999     TIP3     H2       HT       0.417000       1.00800           0
     23333 TIP3     2000     TIP3     OH2      OT      -0.834000       15.9994           0
     23334 TIP3     2000     TIP3     H1       HT       0.417000       1.00800           0
     23335 TIP3     2000     TIP3     H2       HT       0.417000       1.00800           0
     23336 TIP3     2001     TIP3     OH2      OT      -0.834000       15.9994           0
     23337 TIP3     2001     TIP3     H1       HT       0.417000       1.00800           0
     23338 TIP3     2001     TIP3     H2       HT       0.417000       1.00800           0
     23339 TIP3     2002     TIP3     OH2      OT      -0.834000       15.9994           0
     23340 TIP3     2002     TIP3     H1       HT       0.417000       1.00800           0
     23341 TIP3     2002     TIP3     H2       HT       0.417000       1.00800           0
     23342 TIP3     2003     TIP3     OH2      OT      -0.834000       15.9994           0
     23343 TIP3     2003     TIP3     H1       HT       0.417000       1.00800           0
     23344 TIP3     2003     TIP3     H2       HT       0.417000       1.00800           0
     23345 TIP3     2004     TIP3     OH2      OT      -0.834000       15.9994           0
     23346 TIP3     2004     TIP3     H1       HT       0.417000       1.00800           0
     23347 TIP3     2004     TIP3     H2       HT       0.417000       1.00800           0
     23348 TIP3     2005     TIP3     OH2      OT      -0.834000       15.9994           0
     23349 TIP3     2005     TIP3     H1       HT       0.417000       1.00800           0
     23350 TIP3     2005     TIP3     H2       HT       0.417000       1.00800           0
     23351 TIP3     2006     TIP3     OH2      OT      -0.834000       15.9994           0
     23352 TIP3     2006     TIP3     H1       HT       0.417000       1.00800           0
     23353 TIP3     2006     TIP3     H2       HT       0.417000       1.00800           0
     23354 TIP3     2007     TIP3     OH2      OT      -0.834000       15.9994           0
     23355 TIP3     2007     TIP3     H1       HT       0.417000       1.00800           0
     23356 TIP3     2007     TIP3     H2       HT       0.417000       1.00800           0
     23357 TIP3     2008     TIP3     OH2      OT      -0.834000       15.9994           0
     23358 TIP3     2008     TIP3     H1       HT       0.417000       1.00800           0
     23359 TIP3     2008     TIP3     H2       HT       0.417000       1.00800           0
     23360 TIP3     2009     TIP3     OH2      OT      -0.834000       15.9994           0
     23361 TIP3     2009     TIP3     H1       HT       0.417000       1.00800           0
     23362 TIP3     2009     TIP3     H2       HT       0.417000       1.00800           0
     23363 TIP3     2010     TIP3     OH2      OT      -0.834000       15.9994           0
     23364 TIP3     2010     TIP3     H1       HT       0.417000       1.00800           0
     23365 TIP3     2010     TIP3     H2       HT       0.417000       1.00800           0
     23366 TIP3     2011     TIP3     OH2      OT      -0.834000       15.9994           0
     23367 TIP3     2011     TIP3     H1       HT       0.417000       1.00800           0
     23368 TIP3     2011     TIP3     H2       HT       0.417000       1.00800           0
     23369 TIP3     2012     TIP3     OH2      OT      -0.834000       15.9994           0
     23370 TIP3     2012     TIP3     H1       HT       0.417000       1.00800           0
     23371 TIP3     2012     TIP3     H2       HT       0.417000       1.00800           0
     23372 TIP3     2013     TIP3     OH2      OT      -0.834000       15.9994           0
     23373 TIP3     2013     TIP3     H1       HT       0.417000       1.00800           0
     23374 TIP3     2013     TIP3     H2       HT       0.417000       1.00800           0
     23375 TIP3     2014     TIP3     OH2      OT      -0.834000       15.9994           0
     23376 TIP3     2014     TIP3     H1       HT       0.417000       1.00800           0
     23377 TIP3     2014     TIP3     H2       HT       0.417000       1.00800           0
     23378 TIP3     2015     TIP3     OH2      OT      -0.834000       15.9994           0
     23379 TIP3     2015     TIP3     H1       HT       0.417000       1.00800           0
     23380 TIP3     2015     TIP3     H2       HT       0.417000       1.00800           0
     23381 TIP3     2016     TIP3     OH2      OT      -0.834000       15.9994           0
     23382 TIP3     2016     TIP3     H1       HT       0.417000       1.00800           0
     23383 TIP3     2016     TIP3     H2       HT       0.417000       1.00800           0
     23384 TIP3     2017     TIP3     OH2      OT      -0.834000       15.9994           0
     23385 TIP3     2017     TIP3     H1       HT       0.417000       1.00800           0
     23386 TIP3     2017     TIP3     H2       HT       0.417000       1.00800           0
     23387 TIP3     2018     TIP3     OH2      OT      -0.834000       15.9994           0
     23388 TIP3     2018     TIP3     H1       HT       0.417000       1.00800           0
     23389 TIP3     2018     TIP3     H2       HT       0.417000       1.00800           0
     23390 TIP3     2019     TIP3     OH2      OT      -0.834000       15.9994           0
     23391 TIP3     2019     TIP3     H1       HT       0.417000       1.00800           0
     23392 TIP3     2019     TIP3     H2       HT       0.417000       1.00800           0
     23393 TIP3     2020     TIP3     OH2      OT      -0.834000       15.9994           0
     23394 TIP3     2020     TIP3     H1       HT       0.417000       1.00800           0
     23395 TIP3     2020     TIP3     H2       HT       0.417000       1.00800           0
     23396 TIP3     2021     TIP3     OH2      OT      -0.834000       15.9994           0
     23397 TIP3     2021     TIP3     H1       HT       0.417000       1.00800           0
     23398 TIP3     2021     TIP3     H2       HT       0.417000       1.00800           0
     23399 TIP3     2022     TIP3     OH2      OT      -0.834000       15.9994           0
     23400 TIP3     2022     TIP3     H1       HT       0.417000       1.00800           0
     23401 TIP3     2022     TIP3     H2       HT       0.417000       1.00800           0
     23402 TIP3     2023     TIP3     OH2      OT      -0.834000       15.9994           0
     23403 TIP3     2023     TIP3     H1       HT       0.417000       1.00800           0
     23404 TIP3     2023     TIP3     H2       HT       0.417000       1.00800           0
     23405 TIP3     2024     TIP3     OH2      OT      -0.834000       15.9994           0
     23406 TIP3     2024     TIP3     H1       HT       0.417000       1.00800           0
     23407 TIP3     2024     TIP3     H2       HT       0.417000       1.00800           0
     23408 TIP3     2025     TIP3     OH2      OT      -0.834000       15.9994           0
     23409 TIP3     2025     TIP3     H1       HT       0.417000       1.00800           0
     23410 TIP3     2025     TIP3     H2       HT       0.417000       1.00800           0
     23411 TIP3     2026     TIP3     OH2      OT      -0.834000       15.9994           0
     23412 TIP3     2026     TIP3     H1       HT       0.417000       1.00800           0
     23413 TIP3     2026     TIP3     H2       HT       0.417000       1.00800           0
     23414 TIP3     2027     TIP3     OH2      OT      -0.834000       15.9994           0
     23415 TIP3     2027     TIP3     H1       HT       0.417000       1.00800           0
     23416 TIP3     2027     TIP3     H2       HT       0.417000       1.00800           0
     23417 TIP3     2028     TIP3     OH2      OT      -0.834000       15.9994           0
     23418 TIP3     2028     TIP3     H1       HT       0.417000       1.00800           0
     23419 TIP3     2028     TIP3     H2       HT       0.417000       1.00800           0
     23420 TIP3     2029     TIP3     OH2      OT      -0.834000       15.9994           0
     23421 TIP3     2029     TIP3     H1       HT       0.417000       1.00800           0
     23422 TIP3     2029     TIP3     H2       HT       0.417000       1.00800           0
     23423 TIP3     2030     TIP3     OH2      OT      -0.834000       15.9994           0
     23424 TIP3     2030     TIP3     H1       HT       0.417000       1.00800           0
     23425 TIP3     2030     TIP3     H2       HT       0.417000       1.00800           0
     23426 TIP3     2031     TIP3     OH2      OT      -0.834000       15.9994           0
     23427 TIP3     2031     TIP3     H1       HT       0.417000       1.00800           0
     23428 TIP3     2031     TIP3     H2       HT       0.417000       1.00800           0
     23429 TIP3     2032     TIP3     OH2      OT      -0.834000       15.9994           0
     23430 TIP3     2032     TIP3     H1       HT       0.417000       1.00800           0
     23431 TIP3     2032     TIP3     H2       HT       0.417000       1.00800           0
     23432 TIP3     2033     TIP3     OH2      OT      -0.834000       15.9994           0
     23433 TIP3     2033     TIP3     H1       HT       0.417000       1.00800           0
     23434 TIP3     2033     TIP3     H2       HT       0.417000       1.00800           0
     23435 TIP3     2034     TIP3     OH2      OT      -0.834000       15.9994           0
     23436 TIP3     2034     TIP3     H1       HT       0.417000       1.00800           0
     23437 TIP3     2034     TIP3     H2       HT       0.417000       1.00800           0
     23438 TIP3     2035     TIP3     OH2      OT      -0.834000       15.9994           0
     23439 TIP3     2035     TIP3     H1       HT       0.417000       1.00800           0
     23440 TIP3     2035     TIP3     H2       HT       0.417000       1.00800           0
     23441 TIP3     2036     TIP3     OH2      OT      -0.834000       15.9994           0
     23442 TIP3     2036     TIP3     H1       HT       0.417000       1.00800           0
     23443 TIP3     2036     TIP3     H2       HT       0.417000       1.00800           0
     23444 TIP3     2037     TIP3     OH2      OT      -0.834000       15.9994           0
     23445 TIP3     2037     TIP3     H1       HT       0.417000       1.00800           0
     23446 TIP3     2037     TIP3     H2       HT       0.417000       1.00800           0
     23447 TIP3     2038     TIP3     OH2      OT      -0.834000       15.9994           0
     23448 TIP3     2038     TIP3     H1       HT       0.417000       1.00800           0
     23449 TIP3     2038     TIP3     H2       HT       0.417000       1.00800           0
     23450 TIP3     2039     TIP3     OH2      OT      -0.834000       15.9994           0
     23451 TIP3     2039     TIP3     H1       HT       0.417000       1.00800           0
     23452 TIP3     2039     TIP3     H2       HT       0.417000       1.00800           0
     23453 TIP3     2040     TIP3     OH2      OT      -0.834000       15.9994           0
     23454 TIP3     2040     TIP3     H1       HT       0.417000       1.00800           0
     23455 TIP3     2040     TIP3     H2       HT       0.417000       1.00800           0
     23456 TIP3     2041     TIP3     OH2      OT      -0.834000       15.9994           0
     23457 TIP3     2041     TIP3     H1       HT       0.417000       1.00800           0
     23458 TIP3     2041     TIP3     H2       HT       0.417000       1.00800           0
     23459 TIP3     2042     TIP3     OH2      OT      -0.834000       15.9994           0
     23460 TIP3     2042     TIP3     H1       HT       0.417000       1.00800           0
     23461 TIP3     2042     TIP3     H2       HT       0.417000       1.00800           0
     23462 TIP3     2043     TIP3     OH2      OT      -0.834000       15.9994           0
     23463 TIP3     2043     TIP3     H1       HT       0.417000       1.00800           0
     23464 TIP3     2043     TIP3     H2       HT       0.417000       1.00800           0
     23465 TIP3     2044     TIP3     OH2      OT      -0.834000       15.9994           0
     23466 TIP3     2044     TIP3     H1       HT       0.417000       1.00800           0
     23467 TIP3     2044     TIP3     H2       HT       0.417000       1.00800           0
     23468 TIP3     2045     TIP3     OH2      OT      -0.834000       15.9994           0
     23469 TIP3     2045     TIP3     H1       HT       0.417000       1.00800           0
     23470 TIP3     2045     TIP3     H2       HT       0.417000       1.00800           0
     23471 TIP3     2046     TIP3     OH2      OT      -0.834000       15.9994           0
     23472 TIP3     2046     TIP3     H1       HT       0.417000       1.00800           0
     23473 TIP3     2046     TIP3     H2       HT       0.417000       1.00800           0
     23474 TIP3     2047     TIP3     OH2      OT      -0.834000       15.9994           0
     23475 TIP3     2047     TIP3     H1       HT       0.417000       1.00800           0
     23476 TIP3     2047     TIP3     H2       HT       0.417000       1.00800           0
     23477 TIP3     2048     TIP3     OH2      OT      -0.834000       15.9994           0
     23478 TIP3     2048     TIP3     H1       HT       0.417000       1.00800           0
     23479 TIP3     2048     TIP3     H2       HT       0.417000       1.00800           0
     23480 TIP3     2049     TIP3     OH2      OT      -0.834000       15.9994           0
     23481 TIP3     2049     TIP3     H1       HT       0.417000       1.00800           0
     23482 TIP3     2049     TIP3     H2       HT       0.417000       1.00800           0
     23483 TIP3     2050     TIP3     OH2      OT      -0.834000       15.9994           0
     23484 TIP3     2050     TIP3     H1       HT       0.417000       1.00800           0
     23485 TIP3     2050     TIP3     H2       HT       0.417000       1.00800           0
     23486 TIP3     2051     TIP3     OH2      OT      -0.834000       15.9994           0
     23487 TIP3     2051     TIP3     H1       HT       0.417000       1.00800           0
     23488 TIP3     2051     TIP3     H2       HT       0.417000       1.00800           0
     23489 TIP3     2052     TIP3     OH2      OT      -0.834000       15.9994           0
     23490 TIP3     2052     TIP3     H1       HT       0.417000       1.00800           0
     23491 TIP3     2052     TIP3     H2       HT       0.417000       1.00800           0
     23492 TIP3     2053     TIP3     OH2      OT      -0.834000       15.9994           0
     23493 TIP3     2053     TIP3     H1       HT       0.417000       1.00800           0
     23494 TIP3     2053     TIP3     H2       HT       0.417000       1.00800           0
     23495 TIP3     2054     TIP3     OH2      OT      -0.834000       15.9994           0
     23496 TIP3     2054     TIP3     H1       HT       0.417000       1.00800           0
     23497 TIP3     2054     TIP3     H2       HT       0.417000       1.00800           0
     23498 TIP3     2055     TIP3     OH2      OT      -0.834000       15.9994           0
     23499 TIP3     2055     TIP3     H1       HT       0.417000       1.00800           0
     23500 TIP3     2055     TIP3     H2       HT       0.417000       1.00800           0
     23501 TIP3     2056     TIP3     OH2      OT      -0.834000       15.9994           0
     23502 TIP3     2056     TIP3     H1       HT       0.417000       1.00800           0
     23503 TIP3     2056     TIP3     H2       HT       0.417000       1.00800           0
     23504 TIP3     2057     TIP3     OH2      OT      -0.834000       15.9994           0
     23505 TIP3     2057     TIP3     H1       HT       0.417000       1.00800           0
     23506 TIP3     2057     TIP3     H2       HT       0.417000       1.00800           0
     23507 TIP3     2058     TIP3     OH2      OT      -0.834000       15.9994           0
     23508 TIP3     2058     TIP3     H1       HT       0.417000       1.00800           0
     23509 TIP3     2058     TIP3     H2       HT       0.417000       1.00800           0
     23510 TIP3     2059     TIP3     OH2      OT      -0.834000       15.9994           0
     23511 TIP3     2059     TIP3     H1       HT       0.417000       1.00800           0
     23512 TIP3     2059     TIP3     H2       HT       0.417000       1.00800           0
     23513 TIP3     2060     TIP3     OH2      OT      -0.834000       15.9994           0
     23514 TIP3     2060     TIP3     H1       HT       0.417000       1.00800           0
     23515 TIP3     2060     TIP3     H2       HT       0.417000       1.00800           0
     23516 TIP3     2061     TIP3     OH2      OT      -0.834000       15.9994           0
     23517 TIP3     2061     TIP3     H1       HT       0.417000       1.00800           0
     23518 TIP3     2061     TIP3     H2       HT       0.417000       1.00800           0
     23519 TIP3     2062     TIP3     OH2      OT      -0.834000       15.9994           0
     23520 TIP3     2062     TIP3     H1       HT       0.417000       1.00800           0
     23521 TIP3     2062     TIP3     H2       HT       0.417000       1.00800           0
     23522 TIP3     2063     TIP3     OH2      OT      -0.834000       15.9994           0
     23523 TIP3     2063     TIP3     H1       HT       0.417000       1.00800           0
     23524 TIP3     2063     TIP3     H2       HT       0.417000       1.00800           0
     23525 TIP3     2064     TIP3     OH2      OT      -0.834000       15.9994           0
     23526 TIP3     2064     TIP3     H1       HT       0.417000       1.00800           0
     23527 TIP3     2064     TIP3     H2       HT       0.417000       1.00800           0
     23528 TIP3     2065     TIP3     OH2      OT      -0.834000       15.9994           0
     23529 TIP3     2065     TIP3     H1       HT       0.417000       1.00800           0
     23530 TIP3     2065     TIP3     H2       HT       0.417000       1.00800           0
     23531 TIP3     2066     TIP3     OH2      OT      -0.834000       15.9994           0
     23532 TIP3     2066     TIP3     H1       HT       0.417000       1.00800           0
     23533 TIP3     2066     TIP3     H2       HT       0.417000       1.00800           0
     23534 TIP3     2067     TIP3     OH2      OT      -0.834000       15.9994           0
     23535 TIP3     2067     TIP3     H1       HT       0.417000       1.00800           0
     23536 TIP3     2067     TIP3     H2       HT       0.417000       1.00800           0
     23537 TIP3     2068     TIP3     OH2      OT      -0.834000       15.9994           0
     23538 TIP3     2068     TIP3     H1       HT       0.417000       1.00800           0
     23539 TIP3     2068     TIP3     H2       HT       0.417000       1.00800           0
     23540 TIP3     2069     TIP3     OH2      OT      -0.834000       15.9994           0
     23541 TIP3     2069     TIP3     H1       HT       0.417000       1.00800           0
     23542 TIP3     2069     TIP3     H2       HT       0.417000       1.00800           0
     23543 TIP3     2070     TIP3     OH2      OT      -0.834000       15.9994           0
     23544 TIP3     2070     TIP3     H1       HT       0.417000       1.00800           0
     23545 TIP3     2070     TIP3     H2       HT       0.417000       1.00800           0
     23546 TIP3     2071     TIP3     OH2      OT      -0.834000       15.9994           0
     23547 TIP3     2071     TIP3     H1       HT       0.417000       1.00800           0
     23548 TIP3     2071     TIP3     H2       HT       0.417000       1.00800           0
     23549 TIP3     2072     TIP3     OH2      OT      -0.834000       15.9994           0
     23550 TIP3     2072     TIP3     H1       HT       0.417000       1.00800           0
     23551 TIP3     2072     TIP3     H2       HT       0.417000       1.00800           0
     23552 TIP3     2073     TIP3     OH2      OT      -0.834000       15.9994           0
     23553 TIP3     2073     TIP3     H1       HT       0.417000       1.00800           0
     23554 TIP3     2073     TIP3     H2       HT       0.417000       1.00800           0
     23555 TIP3     2074     TIP3     OH2      OT      -0.834000       15.9994           0
     23556 TIP3     2074     TIP3     H1       HT       0.417000       1.00800           0
     23557 TIP3     2074     TIP3     H2       HT       0.417000       1.00800           0
     23558 TIP3     2075     TIP3     OH2      OT      -0.834000       15.9994           0
     23559 TIP3     2075     TIP3     H1       HT       0.417000       1.00800           0
     23560 TIP3     2075     TIP3     H2       HT       0.417000       1.00800           0
     23561 TIP3     2076     TIP3     OH2      OT      -0.834000       15.9994           0
     23562 TIP3     2076     TIP3     H1       HT       0.417000       1.00800           0
     23563 TIP3     2076     TIP3     H2       HT       0.417000       1.00800           0
     23564 TIP3     2077     TIP3     OH2      OT      -0.834000       15.9994           0
     23565 TIP3     2077     TIP3     H1       HT       0.417000       1.00800           0
     23566 TIP3     2077     TIP3     H2       HT       0.417000       1.00800           0
     23567 TIP3     2078     TIP3     OH2      OT      -0.834000       15.9994           0
     23568 TIP3     2078     TIP3     H1       HT       0.417000       1.00800           0
     23569 TIP3     2078     TIP3     H2       HT       0.417000       1.00800           0
     23570 TIP3     2079     TIP3     OH2      OT      -0.834000       15.9994           0
     23571 TIP3     2079     TIP3     H1       HT       0.417000       1.00800           0
     23572 TIP3     2079     TIP3     H2       HT       0.417000       1.00800           0
     23573 TIP3     2080     TIP3     OH2      OT      -0.834000       15.9994           0
     23574 TIP3     2080     TIP3     H1       HT       0.417000       1.00800           0
     23575 TIP3     2080     TIP3     H2       HT       0.417000       1.00800           0
     23576 TIP3     2081     TIP3     OH2      OT      -0.834000       15.9994           0
     23577 TIP3     2081     TIP3     H1       HT       0.417000       1.00800           0
     23578 TIP3     2081     TIP3     H2       HT       0.417000       1.00800           0
     23579 TIP3     2082     TIP3     OH2      OT      -0.834000       15.9994           0
     23580 TIP3     2082     TIP3     H1       HT       0.417000       1.00800           0
     23581 TIP3     2082     TIP3     H2       HT       0.417000       1.00800           0
     23582 TIP3     2083     TIP3     OH2      OT      -0.834000       15.9994           0
     23583 TIP3     2083     TIP3     H1       HT       0.417000       1.00800           0
     23584 TIP3     2083     TIP3     H2       HT       0.417000       1.00800           0
     23585 TIP3     2084     TIP3     OH2      OT      -0.834000       15.9994           0
     23586 TIP3     2084     TIP3     H1       HT       0.417000       1.00800           0
     23587 TIP3     2084     TIP3     H2       HT       0.417000       1.00800           0
     23588 TIP3     2085     TIP3     OH2      OT      -0.834000       15.9994           0
     23589 TIP3     2085     TIP3     H1       HT       0.417000       1.00800           0
     23590 TIP3     2085     TIP3     H2       HT       0.417000       1.00800           0
     23591 TIP3     2086     TIP3     OH2      OT      -0.834000       15.9994           0
     23592 TIP3     2086     TIP3     H1       HT       0.417000       1.00800           0
     23593 TIP3     2086     TIP3     H2       HT       0.417000       1.00800           0
     23594 TIP3     2087     TIP3     OH2      OT      -0.834000       15.9994           0
     23595 TIP3     2087     TIP3     H1       HT       0.417000       1.00800           0
     23596 TIP3     2087     TIP3     H2       HT       0.417000       1.00800           0
     23597 TIP3     2088     TIP3     OH2      OT      -0.834000       15.9994           0
     23598 TIP3     2088     TIP3     H1       HT       0.417000       1.00800           0
     23599 TIP3     2088     TIP3     H2       HT       0.417000       1.00800           0
     23600 TIP3     2089     TIP3     OH2      OT      -0.834000       15.9994           0
     23601 TIP3     2089     TIP3     H1       HT       0.417000       1.00800           0
     23602 TIP3     2089     TIP3     H2       HT       0.417000       1.00800           0
     23603 TIP3     2090     TIP3     OH2      OT      -0.834000       15.9994           0
     23604 TIP3     2090     TIP3     H1       HT       0.417000       1.00800           0
     23605 TIP3     2090     TIP3     H2       HT       0.417000       1.00800           0
     23606 TIP3     2091     TIP3     OH2      OT      -0.834000       15.9994           0
     23607 TIP3     2091     TIP3     H1       HT       0.417000       1.00800           0
     23608 TIP3     2091     TIP3     H2       HT       0.417000       1.00800           0
     23609 TIP3     2092     TIP3     OH2      OT      -0.834000       15.9994           0
     23610 TIP3     2092     TIP3     H1       HT       0.417000       1.00800           0
     23611 TIP3     2092     TIP3     H2       HT       0.417000       1.00800           0
     23612 TIP3     2093     TIP3     OH2      OT      -0.834000       15.9994           0
     23613 TIP3     2093     TIP3     H1       HT       0.417000       1.00800           0
     23614 TIP3     2093     TIP3     H2       HT       0.417000       1.00800           0
     23615 TIP3     2094     TIP3     OH2      OT      -0.834000       15.9994           0
     23616 TIP3     2094     TIP3     H1       HT       0.417000       1.00800           0
     23617 TIP3     2094     TIP3     H2       HT       0.417000       1.00800           0
     23618 TIP3     2095     TIP3     OH2      OT      -0.834000       15.9994           0
     23619 TIP3     2095     TIP3     H1       HT       0.417000       1.00800           0
     23620 TIP3     2095     TIP3     H2       HT       0.417000       1.00800           0
     23621 TIP3     2096     TIP3     OH2      OT      -0.834000       15.9994           0
     23622 TIP3     2096     TIP3     H1       HT       0.417000       1.00800           0
     23623 TIP3     2096     TIP3     H2       HT       0.417000       1.00800           0
     23624 TIP3     2097     TIP3     OH2      OT      -0.834000       15.9994           0
     23625 TIP3     2097     TIP3     H1       HT       0.417000       1.00800           0
     23626 TIP3     2097     TIP3     H2       HT       0.417000       1.00800           0
     23627 TIP3     2098     TIP3     OH2      OT      -0.834000       15.9994           0
     23628 TIP3     2098     TIP3     H1       HT       0.417000       1.00800           0
     23629 TIP3     2098     TIP3     H2       HT       0.417000       1.00800           0
     23630 TIP3     2099     TIP3     OH2      OT      -0.834000       15.9994           0
     23631 TIP3     2099     TIP3     H1       HT       0.417000       1.00800           0
     23632 TIP3     2099     TIP3     H2       HT       0.417000       1.00800           0
     23633 TIP3     2100     TIP3     OH2      OT      -0.834000       15.9994           0
     23634 TIP3     2100     TIP3     H1       HT       0.417000       1.00800           0
     23635 TIP3     2100     TIP3     H2       HT       0.417000       1.00800           0
     23636 TIP3     2101     TIP3     OH2      OT      -0.834000       15.9994           0
     23637 TIP3     2101     TIP3     H1       HT       0.417000       1.00800           0
     23638 TIP3     2101     TIP3     H2       HT       0.417000       1.00800           0
     23639 TIP3     2102     TIP3     OH2      OT      -0.834000       15.9994           0
     23640 TIP3     2102     TIP3     H1       HT       0.417000       1.00800           0
     23641 TIP3     2102     TIP3     H2       HT       0.417000       1.00800           0
     23642 TIP3     2103     TIP3     OH2      OT      -0.834000       15.9994           0
     23643 TIP3     2103     TIP3     H1       HT       0.417000       1.00800           0
     23644 TIP3     2103     TIP3     H2       HT       0.417000       1.00800           0
     23645 TIP3     2104     TIP3     OH2      OT      -0.834000       15.9994           0
     23646 TIP3     2104     TIP3     H1       HT       0.417000       1.00800           0
     23647 TIP3     2104     TIP3     H2       HT       0.417000       1.00800           0
     23648 TIP3     2105     TIP3     OH2      OT      -0.834000       15.9994           0
     23649 TIP3     2105     TIP3     H1       HT       0.417000       1.00800           0
     23650 TIP3     2105     TIP3     H2       HT       0.417000       1.00800           0
     23651 TIP3     2106     TIP3     OH2      OT      -0.834000       15.9994           0
     23652 TIP3     2106     TIP3     H1       HT       0.417000       1.00800           0
     23653 TIP3     2106     TIP3     H2       HT       0.417000       1.00800           0
     23654 TIP3     2107     TIP3     OH2      OT      -0.834000       15.9994           0
     23655 TIP3     2107     TIP3     H1       HT       0.417000       1.00800           0
     23656 TIP3     2107     TIP3     H2       HT       0.417000       1.00800           0
     23657 TIP3     2108     TIP3     OH2      OT      -0.834000       15.9994           0
     23658 TIP3     2108     TIP3     H1       HT       0.417000       1.00800           0
     23659 TIP3     2108     TIP3     H2       HT       0.417000       1.00800           0
     23660 TIP3     2109     TIP3     OH2      OT      -0.834000       15.9994           0
     23661 TIP3     2109     TIP3     H1       HT       0.417000       1.00800           0
     23662 TIP3     2109     TIP3     H2       HT       0.417000       1.00800           0
     23663 TIP3     2110     TIP3     OH2      OT      -0.834000       15.9994           0
     23664 TIP3     2110     TIP3     H1       HT       0.417000       1.00800           0
     23665 TIP3     2110     TIP3     H2       HT       0.417000       1.00800           0
     23666 TIP3     2111     TIP3     OH2      OT      -0.834000       15.9994           0
     23667 TIP3     2111     TIP3     H1       HT       0.417000       1.00800           0
     23668 TIP3     2111     TIP3     H2       HT       0.417000       1.00800           0
     23669 TIP3     2112     TIP3     OH2      OT      -0.834000       15.9994           0
     23670 TIP3     2112     TIP3     H1       HT       0.417000       1.00800           0
     23671 TIP3     2112     TIP3     H2       HT       0.417000       1.00800           0
     23672 TIP3     2113     TIP3     OH2      OT      -0.834000       15.9994           0
     23673 TIP3     2113     TIP3     H1       HT       0.417000       1.00800           0
     23674 TIP3     2113     TIP3     H2       HT       0.417000       1.00800           0
     23675 TIP3     2114     TIP3     OH2      OT      -0.834000       15.9994           0
     23676 TIP3     2114     TIP3     H1       HT       0.417000       1.00800           0
     23677 TIP3     2114     TIP3     H2       HT       0.417000       1.00800           0
     23678 TIP3     2115     TIP3     OH2      OT      -0.834000       15.9994           0
     23679 TIP3     2115     TIP3     H1       HT       0.417000       1.00800           0
     23680 TIP3     2115     TIP3     H2       HT       0.417000       1.00800           0
     23681 TIP3     2116     TIP3     OH2      OT      -0.834000       15.9994           0
     23682 TIP3     2116     TIP3     H1       HT       0.417000       1.00800           0
     23683 TIP3     2116     TIP3     H2       HT       0.417000       1.00800           0
     23684 TIP3     2117     TIP3     OH2      OT      -0.834000       15.9994           0
     23685 TIP3     2117     TIP3     H1       HT       0.417000       1.00800           0
     23686 TIP3     2117     TIP3     H2       HT       0.417000       1.00800           0
     23687 TIP3     2118     TIP3     OH2      OT      -0.834000       15.9994           0
     23688 TIP3     2118     TIP3     H1       HT       0.417000       1.00800           0
     23689 TIP3     2118     TIP3     H2       HT       0.417000       1.00800           0
     23690 TIP3     2119     TIP3     OH2      OT      -0.834000       15.9994           0
     23691 TIP3     2119     TIP3     H1       HT       0.417000       1.00800           0
     23692 TIP3     2119     TIP3     H2       HT       0.417000       1.00800           0
     23693 TIP3     2120     TIP3     OH2      OT      -0.834000       15.9994           0
     23694 TIP3     2120     TIP3     H1       HT       0.417000       1.00800           0
     23695 TIP3     2120     TIP3     H2       HT       0.417000       1.00800           0
     23696 TIP3     2121     TIP3     OH2      OT      -0.834000       15.9994           0
     23697 TIP3     2121     TIP3     H1       HT       0.417000       1.00800           0
     23698 TIP3     2121     TIP3     H2       HT       0.417000       1.00800           0
     23699 TIP3     2122     TIP3     OH2      OT      -0.834000       15.9994           0
     23700 TIP3     2122     TIP3     H1       HT       0.417000       1.00800           0
     23701 TIP3     2122     TIP3     H2       HT       0.417000       1.00800           0
     23702 TIP3     2123     TIP3     OH2      OT      -0.834000       15.9994           0
     23703 TIP3     2123     TIP3     H1       HT       0.417000       1.00800           0
     23704 TIP3     2123     TIP3     H2       HT       0.417000       1.00800           0
     23705 TIP3     2124     TIP3     OH2      OT      -0.834000       15.9994           0
     23706 TIP3     2124     TIP3     H1       HT       0.417000       1.00800           0
     23707 TIP3     2124     TIP3     H2       HT       0.417000       1.00800           0
     23708 TIP3     2125     TIP3     OH2      OT      -0.834000       15.9994           0
     23709 TIP3     2125     TIP3     H1       HT       0.417000       1.00800           0
     23710 TIP3     2125     TIP3     H2       HT       0.417000       1.00800           0
     23711 TIP3     2126     TIP3     OH2      OT      -0.834000       15.9994           0
     23712 TIP3     2126     TIP3     H1       HT       0.417000       1.00800           0
     23713 TIP3     2126     TIP3     H2       HT       0.417000       1.00800           0
     23714 TIP3     2127     TIP3     OH2      OT      -0.834000       15.9994           0
     23715 TIP3     2127     TIP3     H1       HT       0.417000       1.00800           0
     23716 TIP3     2127     TIP3     H2       HT       0.417000       1.00800           0
     23717 TIP3     2128     TIP3     OH2      OT      -0.834000       15.9994           0
     23718 TIP3     2128     TIP3     H1       HT       0.417000       1.00800           0
     23719 TIP3     2128     TIP3     H2       HT       0.417000       1.00800           0
     23720 TIP3     2129     TIP3     OH2      OT      -0.834000       15.9994           0
     23721 TIP3     2129     TIP3     H1       HT       0.417000       1.00800           0
     23722 TIP3     2129     TIP3     H2       HT       0.417000       1.00800           0
     23723 TIP3     2130     TIP3     OH2      OT      -0.834000       15.9994           0
     23724 TIP3     2130     TIP3     H1       HT       0.417000       1.00800           0
     23725 TIP3     2130     TIP3     H2       HT       0.417000       1.00800           0
     23726 TIP3     2131     TIP3     OH2      OT      -0.834000       15.9994           0
     23727 TIP3     2131     TIP3     H1       HT       0.417000       1.00800           0
     23728 TIP3     2131     TIP3     H2       HT       0.417000       1.00800           0
     23729 TIP3     2132     TIP3     OH2      OT      -0.834000       15.9994           0
     23730 TIP3     2132     TIP3     H1       HT       0.417000       1.00800           0
     23731 TIP3     2132     TIP3     H2       HT       0.417000       1.00800           0
     23732 TIP3     2133     TIP3     OH2      OT      -0.834000       15.9994           0
     23733 TIP3     2133     TIP3     H1       HT       0.417000       1.00800           0
     23734 TIP3     2133     TIP3     H2       HT       0.417000       1.00800           0
     23735 TIP3     2134     TIP3     OH2      OT      -0.834000       15.9994           0
     23736 TIP3     2134     TIP3     H1       HT       0.417000       1.00800           0
     23737 TIP3     2134     TIP3     H2       HT       0.417000       1.00800           0
     23738 TIP3     2135     TIP3     OH2      OT      -0.834000       15.9994           0
     23739 TIP3     2135     TIP3     H1       HT       0.417000       1.00800           0
     23740 TIP3     2135     TIP3     H2       HT       0.417000       1.00800           0
     23741 TIP3     2136     TIP3     OH2      OT      -0.834000       15.9994           0
     23742 TIP3     2136     TIP3     H1       HT       0.417000       1.00800           0
     23743 TIP3     2136     TIP3     H2       HT       0.417000       1.00800           0
     23744 TIP3     2137     TIP3     OH2      OT      -0.834000       15.9994           0
     23745 TIP3     2137     TIP3     H1       HT       0.417000       1.00800           0
     23746 TIP3     2137     TIP3     H2       HT       0.417000       1.00800           0
     23747 TIP3     2138     TIP3     OH2      OT      -0.834000       15.9994           0
     23748 TIP3     2138     TIP3     H1       HT       0.417000       1.00800           0
     23749 TIP3     2138     TIP3     H2       HT       0.417000       1.00800           0
     23750 TIP3     2139     TIP3     OH2      OT      -0.834000       15.9994           0
     23751 TIP3     2139     TIP3     H1       HT       0.417000       1.00800           0
     23752 TIP3     2139     TIP3     H2       HT       0.417000       1.00800           0
     23753 TIP3     2140     TIP3     OH2      OT      -0.834000       15.9994           0
     23754 TIP3     2140     TIP3     H1       HT       0.417000       1.00800           0
     23755 TIP3     2140     TIP3     H2       HT       0.417000       1.00800           0
     23756 TIP3     2141     TIP3     OH2      OT      -0.834000       15.9994           0
     23757 TIP3     2141     TIP3     H1       HT       0.417000       1.00800           0
     23758 TIP3     2141     TIP3     H2       HT       0.417000       1.00800           0
     23759 TIP3     2142     TIP3     OH2      OT      -0.834000       15.9994           0
     23760 TIP3     2142     TIP3     H1       HT       0.417000       1.00800           0
     23761 TIP3     2142     TIP3     H2       HT       0.417000       1.00800           0
     23762 TIP3     2143     TIP3     OH2      OT      -0.834000       15.9994           0
     23763 TIP3     2143     TIP3     H1       HT       0.417000       1.00800           0
     23764 TIP3     2143     TIP3     H2       HT       0.417000       1.00800           0
     23765 TIP3     2144     TIP3     OH2      OT      -0.834000       15.9994           0
     23766 TIP3     2144     TIP3     H1       HT       0.417000       1.00800           0
     23767 TIP3     2144     TIP3     H2       HT       0.417000       1.00800           0
     23768 TIP3     2145     TIP3     OH2      OT      -0.834000       15.9994           0
     23769 TIP3     2145     TIP3     H1       HT       0.417000       1.00800           0
     23770 TIP3     2145     TIP3     H2       HT       0.417000       1.00800           0
     23771 TIP3     2146     TIP3     OH2      OT      -0.834000       15.9994           0
     23772 TIP3     2146     TIP3     H1       HT       0.417000       1.00800           0
     23773 TIP3     2146     TIP3     H2       HT       0.417000       1.00800           0
     23774 TIP3     2147     TIP3     OH2      OT      -0.834000       15.9994           0
     23775 TIP3     2147     TIP3     H1       HT       0.417000       1.00800           0
     23776 TIP3     2147     TIP3     H2       HT       0.417000       1.00800           0
     23777 TIP3     2148     TIP3     OH2      OT      -0.834000       15.9994           0
     23778 TIP3     2148     TIP3     H1       HT       0.417000       1.00800           0
     23779 TIP3     2148     TIP3     H2       HT       0.417000       1.00800           0
     23780 TIP3     2149     TIP3     OH2      OT      -0.834000       15.9994           0
     23781 TIP3     2149     TIP3     H1       HT       0.417000       1.00800           0
     23782 TIP3     2149     TIP3     H2       HT       0.417000       1.00800           0
     23783 TIP3     2150     TIP3     OH2      OT      -0.834000       15.9994           0
     23784 TIP3     2150     TIP3     H1       HT       0.417000       1.00800           0
     23785 TIP3     2150     TIP3     H2       HT       0.417000       1.00800           0
     23786 TIP3     2151     TIP3     OH2      OT      -0.834000       15.9994           0
     23787 TIP3     2151     TIP3     H1       HT       0.417000       1.00800           0
     23788 TIP3     2151     TIP3     H2       HT       0.417000       1.00800           0
     23789 TIP3     2152     TIP3     OH2      OT      -0.834000       15.9994           0
     23790 TIP3     2152     TIP3     H1       HT       0.417000       1.00800           0
     23791 TIP3     2152     TIP3     H2       HT       0.417000       1.00800           0
     23792 TIP3     2153     TIP3     OH2      OT      -0.834000       15.9994           0
     23793 TIP3     2153     TIP3     H1       HT       0.417000       1.00800           0
     23794 TIP3     2153     TIP3     H2       HT       0.417000       1.00800           0
     23795 TIP3     2154     TIP3     OH2      OT      -0.834000       15.9994           0
     23796 TIP3     2154     TIP3     H1       HT       0.417000       1.00800           0
     23797 TIP3     2154     TIP3     H2       HT       0.417000       1.00800           0
     23798 TIP3     2155     TIP3     OH2      OT      -0.834000       15.9994           0
     23799 TIP3     2155     TIP3     H1       HT       0.417000       1.00800           0
     23800 TIP3     2155     TIP3     H2       HT       0.417000       1.00800           0
     23801 TIP3     2156     TIP3     OH2      OT      -0.834000       15.9994           0
     23802 TIP3     2156     TIP3     H1       HT       0.417000       1.00800           0
     23803 TIP3     2156     TIP3     H2       HT       0.417000       1.00800           0
     23804 TIP3     2157     TIP3     OH2      OT      -0.834000       15.9994           0
     23805 TIP3     2157     TIP3     H1       HT       0.417000       1.00800           0
     23806 TIP3     2157     TIP3     H2       HT       0.417000       1.00800           0
     23807 TIP3     2158     TIP3     OH2      OT      -0.834000       15.9994           0
     23808 TIP3     2158     TIP3     H1       HT       0.417000       1.00800           0
     23809 TIP3     2158     TIP3     H2       HT       0.417000       1.00800           0
     23810 TIP3     2159     TIP3     OH2      OT      -0.834000       15.9994           0
     23811 TIP3     2159     TIP3     H1       HT       0.417000       1.00800           0
     23812 TIP3     2159     TIP3     H2       HT       0.417000       1.00800           0
     23813 TIP3     2160     TIP3     OH2      OT      -0.834000       15.9994           0
     23814 TIP3     2160     TIP3     H1       HT       0.417000       1.00800           0
     23815 TIP3     2160     TIP3     H2       HT       0.417000       1.00800           0
     23816 TIP3     2161     TIP3     OH2      OT      -0.834000       15.9994           0
     23817 TIP3     2161     TIP3     H1       HT       0.417000       1.00800           0
     23818 TIP3     2161     TIP3     H2       HT       0.417000       1.00800           0
     23819 TIP3     2162     TIP3     OH2      OT      -0.834000       15.9994           0
     23820 TIP3     2162     TIP3     H1       HT       0.417000       1.00800           0
     23821 TIP3     2162     TIP3     H2       HT       0.417000       1.00800           0
     23822 TIP3     2163     TIP3     OH2      OT      -0.834000       15.9994           0
     23823 TIP3     2163     TIP3     H1       HT       0.417000       1.00800           0
     23824 TIP3     2163     TIP3     H2       HT       0.417000       1.00800           0
     23825 TIP3     2164     TIP3     OH2      OT      -0.834000       15.9994           0
     23826 TIP3     2164     TIP3     H1       HT       0.417000       1.00800           0
     23827 TIP3     2164     TIP3     H2       HT       0.417000       1.00800           0
     23828 TIP3     2165     TIP3     OH2      OT      -0.834000       15.9994           0
     23829 TIP3     2165     TIP3     H1       HT       0.417000       1.00800           0
     23830 TIP3     2165     TIP3     H2       HT       0.417000       1.00800           0
     23831 TIP3     2166     TIP3     OH2      OT      -0.834000       15.9994           0
     23832 TIP3     2166     TIP3     H1       HT       0.417000       1.00800           0
     23833 TIP3     2166     TIP3     H2       HT       0.417000       1.00800           0
     23834 TIP3     2167     TIP3     OH2      OT      -0.834000       15.9994           0
     23835 TIP3     2167     TIP3     H1       HT       0.417000       1.00800           0
     23836 TIP3     2167     TIP3     H2       HT       0.417000       1.00800           0
     23837 TIP3     2168     TIP3     OH2      OT      -0.834000       15.9994           0
     23838 TIP3     2168     TIP3     H1       HT       0.417000       1.00800           0
     23839 TIP3     2168     TIP3     H2       HT       0.417000       1.00800           0
     23840 TIP3     2169     TIP3     OH2      OT      -0.834000       15.9994           0
     23841 TIP3     2169     TIP3     H1       HT       0.417000       1.00800           0
     23842 TIP3     2169     TIP3     H2       HT       0.417000       1.00800           0
     23843 TIP3     2170     TIP3     OH2      OT      -0.834000       15.9994           0
     23844 TIP3     2170     TIP3     H1       HT       0.417000       1.00800           0
     23845 TIP3     2170     TIP3     H2       HT       0.417000       1.00800           0
     23846 TIP3     2171     TIP3     OH2      OT      -0.834000       15.9994           0
     23847 TIP3     2171     TIP3     H1       HT       0.417000       1.00800           0
     23848 TIP3     2171     TIP3     H2       HT       0.417000       1.00800           0
     23849 TIP3     2172     TIP3     OH2      OT      -0.834000       15.9994           0
     23850 TIP3     2172     TIP3     H1       HT       0.417000       1.00800           0
     23851 TIP3     2172     TIP3     H2       HT       0.417000       1.00800           0
     23852 TIP3     2173     TIP3     OH2      OT      -0.834000       15.9994           0
     23853 TIP3     2173     TIP3     H1       HT       0.417000       1.00800           0
     23854 TIP3     2173     TIP3     H2       HT       0.417000       1.00800           0
     23855 TIP3     2174     TIP3     OH2      OT      -0.834000       15.9994           0
     23856 TIP3     2174     TIP3     H1       HT       0.417000       1.00800           0
     23857 TIP3     2174     TIP3     H2       HT       0.417000       1.00800           0
     23858 TIP3     2175     TIP3     OH2      OT      -0.834000       15.9994           0
     23859 TIP3     2175     TIP3     H1       HT       0.417000       1.00800           0
     23860 TIP3     2175     TIP3     H2       HT       0.417000       1.00800           0
     23861 TIP3     2176     TIP3     OH2      OT      -0.834000       15.9994           0
     23862 TIP3     2176     TIP3     H1       HT       0.417000       1.00800           0
     23863 TIP3     2176     TIP3     H2       HT       0.417000       1.00800           0
     23864 TIP3     2177     TIP3     OH2      OT      -0.834000       15.9994           0
     23865 TIP3     2177     TIP3     H1       HT       0.417000       1.00800           0
     23866 TIP3     2177     TIP3     H2       HT       0.417000       1.00800           0
     23867 TIP3     2178     TIP3     OH2      OT      -0.834000       15.9994           0
     23868 TIP3     2178     TIP3     H1       HT       0.417000       1.00800           0
     23869 TIP3     2178     TIP3     H2       HT       0.417000       1.00800           0
     23870 TIP3     2179     TIP3     OH2      OT      -0.834000       15.9994           0
     23871 TIP3     2179     TIP3     H1       HT       0.417000       1.00800           0
     23872 TIP3     2179     TIP3     H2       HT       0.417000       1.00800           0
     23873 TIP3     2180     TIP3     OH2      OT      -0.834000       15.9994           0
     23874 TIP3     2180     TIP3     H1       HT       0.417000       1.00800           0
     23875 TIP3     2180     TIP3     H2       HT       0.417000       1.00800           0
     23876 TIP3     2181     TIP3     OH2      OT      -0.834000       15.9994           0
     23877 TIP3     2181     TIP3     H1       HT       0.417000       1.00800           0
     23878 TIP3     2181     TIP3     H2       HT       0.417000       1.00800           0
     23879 TIP3     2182     TIP3     OH2      OT      -0.834000       15.9994           0
     23880 TIP3     2182     TIP3     H1       HT       0.417000       1.00800           0
     23881 TIP3     2182     TIP3     H2       HT       0.417000       1.00800           0
     23882 TIP3     2183     TIP3     OH2      OT      -0.834000       15.9994           0
     23883 TIP3     2183     TIP3     H1       HT       0.417000       1.00800           0
     23884 TIP3     2183     TIP3     H2       HT       0.417000       1.00800           0
     23885 TIP3     2184     TIP3     OH2      OT      -0.834000       15.9994           0
     23886 TIP3     2184     TIP3     H1       HT       0.417000       1.00800           0
     23887 TIP3     2184     TIP3     H2       HT       0.417000       1.00800           0
     23888 TIP3     2185     TIP3     OH2      OT      -0.834000       15.9994           0
     23889 TIP3     2185     TIP3     H1       HT       0.417000       1.00800           0
     23890 TIP3     2185     TIP3     H2       HT       0.417000       1.00800           0
     23891 TIP3     2186     TIP3     OH2      OT      -0.834000       15.9994           0
     23892 TIP3     2186     TIP3     H1       HT       0.417000       1.00800           0
     23893 TIP3     2186     TIP3     H2       HT       0.417000       1.00800           0
     23894 TIP3     2187     TIP3     OH2      OT      -0.834000       15.9994           0
     23895 TIP3     2187     TIP3     H1       HT       0.417000       1.00800           0
     23896 TIP3     2187     TIP3     H2       HT       0.417000       1.00800           0
     23897 TIP3     2188     TIP3     OH2      OT      -0.834000       15.9994           0
     23898 TIP3     2188     TIP3     H1       HT       0.417000       1.00800           0
     23899 TIP3     2188     TIP3     H2       HT       0.417000       1.00800           0
     23900 TIP3     2189     TIP3     OH2      OT      -0.834000       15.9994           0
     23901 TIP3     2189     TIP3     H1       HT       0.417000       1.00800           0
     23902 TIP3     2189     TIP3     H2       HT       0.417000       1.00800           0
     23903 TIP3     2190     TIP3     OH2      OT      -0.834000       15.9994           0
     23904 TIP3     2190     TIP3     H1       HT       0.417000       1.00800           0
     23905 TIP3     2190     TIP3     H2       HT       0.417000       1.00800           0
     23906 TIP3     2191     TIP3     OH2      OT      -0.834000       15.9994           0
     23907 TIP3     2191     TIP3     H1       HT       0.417000       1.00800           0
     23908 TIP3     2191     TIP3     H2       HT       0.417000       1.00800           0
     23909 TIP3     2192     TIP3     OH2      OT      -0.834000       15.9994           0
     23910 TIP3     2192     TIP3     H1       HT       0.417000       1.00800           0
     23911 TIP3     2192     TIP3     H2       HT       0.417000       1.00800           0
     23912 TIP3     2193     TIP3     OH2      OT      -0.834000       15.9994           0
     23913 TIP3     2193     TIP3     H1       HT       0.417000       1.00800           0
     23914 TIP3     2193     TIP3     H2       HT       0.417000       1.00800           0
     23915 TIP3     2194     TIP3     OH2      OT      -0.834000       15.9994           0
     23916 TIP3     2194     TIP3     H1       HT       0.417000       1.00800           0
     23917 TIP3     2194     TIP3     H2       HT       0.417000       1.00800           0
     23918 TIP3     2195     TIP3     OH2      OT      -0.834000       15.9994           0
     23919 TIP3     2195     TIP3     H1       HT       0.417000       1.00800           0
     23920 TIP3     2195     TIP3     H2       HT       0.417000       1.00800           0
     23921 TIP3     2196     TIP3     OH2      OT      -0.834000       15.9994           0
     23922 TIP3     2196     TIP3     H1       HT       0.417000       1.00800           0
     23923 TIP3     2196     TIP3     H2       HT       0.417000       1.00800           0
     23924 TIP3     2197     TIP3     OH2      OT      -0.834000       15.9994           0
     23925 TIP3     2197     TIP3     H1       HT       0.417000       1.00800           0
     23926 TIP3     2197     TIP3     H2       HT       0.417000       1.00800           0
     23927 TIP3     2198     TIP3     OH2      OT      -0.834000       15.9994           0
     23928 TIP3     2198     TIP3     H1       HT       0.417000       1.00800           0
     23929 TIP3     2198     TIP3     H2       HT       0.417000       1.00800           0
     23930 TIP3     2199     TIP3     OH2      OT      -0.834000       15.9994           0
     23931 TIP3     2199     TIP3     H1       HT       0.417000       1.00800           0
     23932 TIP3     2199     TIP3     H2       HT       0.417000       1.00800           0
     23933 TIP3     2200     TIP3     OH2      OT      -0.834000       15.9994           0
     23934 TIP3     2200     TIP3     H1       HT       0.417000       1.00800           0
     23935 TIP3     2200     TIP3     H2       HT       0.417000       1.00800           0
     23936 TIP3     2201     TIP3     OH2      OT      -0.834000       15.9994           0
     23937 TIP3     2201     TIP3     H1       HT       0.417000       1.00800           0
     23938 TIP3     2201     TIP3     H2       HT       0.417000       1.00800           0
     23939 TIP3     2202     TIP3     OH2      OT      -0.834000       15.9994           0
     23940 TIP3     2202     TIP3     H1       HT       0.417000       1.00800           0
     23941 TIP3     2202     TIP3     H2       HT       0.417000       1.00800           0
     23942 TIP3     2203     TIP3     OH2      OT      -0.834000       15.9994           0
     23943 TIP3     2203     TIP3     H1       HT       0.417000       1.00800           0
     23944 TIP3     2203     TIP3     H2       HT       0.417000       1.00800           0
     23945 TIP3     2204     TIP3     OH2      OT      -0.834000       15.9994           0
     23946 TIP3     2204     TIP3     H1       HT       0.417000       1.00800           0
     23947 TIP3     2204     TIP3     H2       HT       0.417000       1.00800           0
     23948 TIP3     2205     TIP3     OH2      OT      -0.834000       15.9994           0
     23949 TIP3     2205     TIP3     H1       HT       0.417000       1.00800           0
     23950 TIP3     2205     TIP3     H2       HT       0.417000       1.00800           0
     23951 TIP3     2206     TIP3     OH2      OT      -0.834000       15.9994           0
     23952 TIP3     2206     TIP3     H1       HT       0.417000       1.00800           0
     23953 TIP3     2206     TIP3     H2       HT       0.417000       1.00800           0
     23954 TIP3     2207     TIP3     OH2      OT      -0.834000       15.9994           0
     23955 TIP3     2207     TIP3     H1       HT       0.417000       1.00800           0
     23956 TIP3     2207     TIP3     H2       HT       0.417000       1.00800           0
     23957 TIP3     2208     TIP3     OH2      OT      -0.834000       15.9994           0
     23958 TIP3     2208     TIP3     H1       HT       0.417000       1.00800           0
     23959 TIP3     2208     TIP3     H2       HT       0.417000       1.00800           0
     23960 TIP3     2209     TIP3     OH2      OT      -0.834000       15.9994           0
     23961 TIP3     2209     TIP3     H1       HT       0.417000       1.00800           0
     23962 TIP3     2209     TIP3     H2       HT       0.417000       1.00800           0
     23963 TIP3     2210     TIP3     OH2      OT      -0.834000       15.9994           0
     23964 TIP3     2210     TIP3     H1       HT       0.417000       1.00800           0
     23965 TIP3     2210     TIP3     H2       HT       0.417000       1.00800           0
     23966 TIP3     2211     TIP3     OH2      OT      -0.834000       15.9994           0
     23967 TIP3     2211     TIP3     H1       HT       0.417000       1.00800           0
     23968 TIP3     2211     TIP3     H2       HT       0.417000       1.00800           0
     23969 TIP3     2212     TIP3     OH2      OT      -0.834000       15.9994           0
     23970 TIP3     2212     TIP3     H1       HT       0.417000       1.00800           0
     23971 TIP3     2212     TIP3     H2       HT       0.417000       1.00800           0
     23972 TIP3     2213     TIP3     OH2      OT      -0.834000       15.9994           0
     23973 TIP3     2213     TIP3     H1       HT       0.417000       1.00800           0
     23974 TIP3     2213     TIP3     H2       HT       0.417000       1.00800           0
     23975 TIP3     2214     TIP3     OH2      OT      -0.834000       15.9994           0
     23976 TIP3     2214     TIP3     H1       HT       0.417000       1.00800           0
     23977 TIP3     2214     TIP3     H2       HT       0.417000       1.00800           0
     23978 TIP3     2215     TIP3     OH2      OT      -0.834000       15.9994           0
     23979 TIP3     2215     TIP3     H1       HT       0.417000       1.00800           0
     23980 TIP3     2215     TIP3     H2       HT       0.417000       1.00800           0
     23981 TIP3     2216     TIP3     OH2      OT      -0.834000       15.9994           0
     23982 TIP3     2216     TIP3     H1       HT       0.417000       1.00800           0
     23983 TIP3     2216     TIP3     H2       HT       0.417000       1.00800           0
     23984 TIP3     2217     TIP3     OH2      OT      -0.834000       15.9994           0
     23985 TIP3     2217     TIP3     H1       HT       0.417000       1.00800           0
     23986 TIP3     2217     TIP3     H2       HT       0.417000       1.00800           0
     23987 TIP3     2218     TIP3     OH2      OT      -0.834000       15.9994           0
     23988 TIP3     2218     TIP3     H1       HT       0.417000       1.00800           0
     23989 TIP3     2218     TIP3     H2       HT       0.417000       1.00800           0
     23990 TIP3     2219     TIP3     OH2      OT      -0.834000       15.9994           0
     23991 TIP3     2219     TIP3     H1       HT       0.417000       1.00800           0
     23992 TIP3     2219     TIP3     H2       HT       0.417000       1.00800           0
     23993 TIP3     2220     TIP3     OH2      OT      -0.834000       15.9994           0
     23994 TIP3     2220     TIP3     H1       HT       0.417000       1.00800           0
     23995 TIP3     2220     TIP3     H2       HT       0.417000       1.00800           0
     23996 TIP3     2221     TIP3     OH2      OT      -0.834000       15.9994           0
     23997 TIP3     2221     TIP3     H1       HT       0.417000       1.00800           0
     23998 TIP3     2221     TIP3     H2       HT       0.417000       1.00800           0
     23999 TIP3     2222     TIP3     OH2      OT      -0.834000       15.9994           0
     24000 TIP3     2222     TIP3     H1       HT       0.417000       1.00800           0
     24001 TIP3     2222     TIP3     H2       HT       0.417000       1.00800           0
     24002 TIP3     2223     TIP3     OH2      OT      -0.834000       15.9994           0
     24003 TIP3     2223     TIP3     H1       HT       0.417000       1.00800           0
     24004 TIP3     2223     TIP3     H2       HT       0.417000       1.00800           0
     24005 TIP3     2224     TIP3     OH2      OT      -0.834000       15.9994           0
     24006 TIP3     2224     TIP3     H1       HT       0.417000       1.00800           0
     24007 TIP3     2224     TIP3     H2       HT       0.417000       1.00800           0
     24008 TIP3     2225     TIP3     OH2      OT      -0.834000       15.9994           0
     24009 TIP3     2225     TIP3     H1       HT       0.417000       1.00800           0
     24010 TIP3     2225     TIP3     H2       HT       0.417000       1.00800           0
     24011 TIP3     2226     TIP3     OH2      OT      -0.834000       15.9994           0
     24012 TIP3     2226     TIP3     H1       HT       0.417000       1.00800           0
     24013 TIP3     2226     TIP3     H2       HT       0.417000       1.00800           0
     24014 TIP3     2227     TIP3     OH2      OT      -0.834000       15.9994           0
     24015 TIP3     2227     TIP3     H1       HT       0.417000       1.00800           0
     24016 TIP3     2227     TIP3     H2       HT       0.417000       1.00800           0
     24017 TIP3     2228     TIP3     OH2      OT      -0.834000       15.9994           0
     24018 TIP3     2228     TIP3     H1       HT       0.417000       1.00800           0
     24019 TIP3     2228     TIP3     H2       HT       0.417000       1.00800           0
     24020 TIP3     2229     TIP3     OH2      OT      -0.834000       15.9994           0
     24021 TIP3     2229     TIP3     H1       HT       0.417000       1.00800           0
     24022 TIP3     2229     TIP3     H2       HT       0.417000       1.00800           0
     24023 TIP3     2230     TIP3     OH2      OT      -0.834000       15.9994           0
     24024 TIP3     2230     TIP3     H1       HT       0.417000       1.00800           0
     24025 TIP3     2230     TIP3     H2       HT       0.417000       1.00800           0
     24026 TIP3     2231     TIP3     OH2      OT      -0.834000       15.9994           0
     24027 TIP3     2231     TIP3     H1       HT       0.417000       1.00800           0
     24028 TIP3     2231     TIP3     H2       HT       0.417000       1.00800           0
     24029 TIP3     2232     TIP3     OH2      OT      -0.834000       15.9994           0
     24030 TIP3     2232     TIP3     H1       HT       0.417000       1.00800           0
     24031 TIP3     2232     TIP3     H2       HT       0.417000       1.00800           0
     24032 TIP3     2233     TIP3     OH2      OT      -0.834000       15.9994           0
     24033 TIP3     2233     TIP3     H1       HT       0.417000       1.00800           0
     24034 TIP3     2233     TIP3     H2       HT       0.417000       1.00800           0
     24035 TIP3     2234     TIP3     OH2      OT      -0.834000       15.9994           0
     24036 TIP3     2234     TIP3     H1       HT       0.417000       1.00800           0
     24037 TIP3     2234     TIP3     H2       HT       0.417000       1.00800           0
     24038 TIP3     2235     TIP3     OH2      OT      -0.834000       15.9994           0
     24039 TIP3     2235     TIP3     H1       HT       0.417000       1.00800           0
     24040 TIP3     2235     TIP3     H2       HT       0.417000       1.00800           0
     24041 TIP3     2236     TIP3     OH2      OT      -0.834000       15.9994           0
     24042 TIP3     2236     TIP3     H1       HT       0.417000       1.00800           0
     24043 TIP3     2236     TIP3     H2       HT       0.417000       1.00800           0
     24044 TIP3     2237     TIP3     OH2      OT      -0.834000       15.9994           0
     24045 TIP3     2237     TIP3     H1       HT       0.417000       1.00800           0
     24046 TIP3     2237     TIP3     H2       HT       0.417000       1.00800           0
     24047 TIP3     2238     TIP3     OH2      OT      -0.834000       15.9994           0
     24048 TIP3     2238     TIP3     H1       HT       0.417000       1.00800           0
     24049 TIP3     2238     TIP3     H2       HT       0.417000       1.00800           0
     24050 TIP3     2239     TIP3     OH2      OT      -0.834000       15.9994           0
     24051 TIP3     2239     TIP3     H1       HT       0.417000       1.00800           0
     24052 TIP3     2239     TIP3     H2       HT       0.417000       1.00800           0
     24053 TIP3     2240     TIP3     OH2      OT      -0.834000       15.9994           0
     24054 TIP3     2240     TIP3     H1       HT       0.417000       1.00800           0
     24055 TIP3     2240     TIP3     H2       HT       0.417000       1.00800           0
     24056 TIP3     2241     TIP3     OH2      OT      -0.834000       15.9994           0
     24057 TIP3     2241     TIP3     H1       HT       0.417000       1.00800           0
     24058 TIP3     2241     TIP3     H2       HT       0.417000       1.00800           0
     24059 TIP3     2242     TIP3     OH2      OT      -0.834000       15.9994           0
     24060 TIP3     2242     TIP3     H1       HT       0.417000       1.00800           0
     24061 TIP3     2242     TIP3     H2       HT       0.417000       1.00800           0
     24062 TIP3     2243     TIP3     OH2      OT      -0.834000       15.9994           0
     24063 TIP3     2243     TIP3     H1       HT       0.417000       1.00800           0
     24064 TIP3     2243     TIP3     H2       HT       0.417000       1.00800           0
     24065 TIP3     2244     TIP3     OH2      OT      -0.834000       15.9994           0
     24066 TIP3     2244     TIP3     H1       HT       0.417000       1.00800           0
     24067 TIP3     2244     TIP3     H2       HT       0.417000       1.00800           0
     24068 TIP3     2245     TIP3     OH2      OT      -0.834000       15.9994           0
     24069 TIP3     2245     TIP3     H1       HT       0.417000       1.00800           0
     24070 TIP3     2245     TIP3     H2       HT       0.417000       1.00800           0
     24071 TIP3     2246     TIP3     OH2      OT      -0.834000       15.9994           0
     24072 TIP3     2246     TIP3     H1       HT       0.417000       1.00800           0
     24073 TIP3     2246     TIP3     H2       HT       0.417000       1.00800           0
     24074 TIP3     2247     TIP3     OH2      OT      -0.834000       15.9994           0
     24075 TIP3     2247     TIP3     H1       HT       0.417000       1.00800           0
     24076 TIP3     2247     TIP3     H2       HT       0.417000       1.00800           0
     24077 TIP3     2248     TIP3     OH2      OT      -0.834000       15.9994           0
     24078 TIP3     2248     TIP3     H1       HT       0.417000       1.00800           0
     24079 TIP3     2248     TIP3     H2       HT       0.417000       1.00800           0
     24080 TIP3     2249     TIP3     OH2      OT      -0.834000       15.9994           0
     24081 TIP3     2249     TIP3     H1       HT       0.417000       1.00800           0
     24082 TIP3     2249     TIP3     H2       HT       0.417000       1.00800           0
     24083 TIP3     2250     TIP3     OH2      OT      -0.834000       15.9994           0
     24084 TIP3     2250     TIP3     H1       HT       0.417000       1.00800           0
     24085 TIP3     2250     TIP3     H2       HT       0.417000       1.00800           0
     24086 TIP3     2251     TIP3     OH2      OT      -0.834000       15.9994           0
     24087 TIP3     2251     TIP3     H1       HT       0.417000       1.00800           0
     24088 TIP3     2251     TIP3     H2       HT       0.417000       1.00800           0
     24089 TIP3     2252     TIP3     OH2      OT      -0.834000       15.9994           0
     24090 TIP3     2252     TIP3     H1       HT       0.417000       1.00800           0
     24091 TIP3     2252     TIP3     H2       HT       0.417000       1.00800           0
     24092 TIP3     2253     TIP3     OH2      OT      -0.834000       15.9994           0
     24093 TIP3     2253     TIP3     H1       HT       0.417000       1.00800           0
     24094 TIP3     2253     TIP3     H2       HT       0.417000       1.00800           0
     24095 TIP3     2254     TIP3     OH2      OT      -0.834000       15.9994           0
     24096 TIP3     2254     TIP3     H1       HT       0.417000       1.00800           0
     24097 TIP3     2254     TIP3     H2       HT       0.417000       1.00800           0
     24098 TIP3     2255     TIP3     OH2      OT      -0.834000       15.9994           0
     24099 TIP3     2255     TIP3     H1       HT       0.417000       1.00800           0
     24100 TIP3     2255     TIP3     H2       HT       0.417000       1.00800           0
     24101 TIP3     2256     TIP3     OH2      OT      -0.834000       15.9994           0
     24102 TIP3     2256     TIP3     H1       HT       0.417000       1.00800           0
     24103 TIP3     2256     TIP3     H2       HT       0.417000       1.00800           0
     24104 TIP3     2257     TIP3     OH2      OT      -0.834000       15.9994           0
     24105 TIP3     2257     TIP3     H1       HT       0.417000       1.00800           0
     24106 TIP3     2257     TIP3     H2       HT       0.417000       1.00800           0
     24107 TIP3     2258     TIP3     OH2      OT      -0.834000       15.9994           0
     24108 TIP3     2258     TIP3     H1       HT       0.417000       1.00800           0
     24109 TIP3     2258     TIP3     H2       HT       0.417000       1.00800           0
     24110 TIP3     2259     TIP3     OH2      OT      -0.834000       15.9994           0
     24111 TIP3     2259     TIP3     H1       HT       0.417000       1.00800           0
     24112 TIP3     2259     TIP3     H2       HT       0.417000       1.00800           0
     24113 TIP3     2260     TIP3     OH2      OT      -0.834000       15.9994           0
     24114 TIP3     2260     TIP3     H1       HT       0.417000       1.00800           0
     24115 TIP3     2260     TIP3     H2       HT       0.417000       1.00800           0
     24116 TIP3     2261     TIP3     OH2      OT      -0.834000       15.9994           0
     24117 TIP3     2261     TIP3     H1       HT       0.417000       1.00800           0
     24118 TIP3     2261     TIP3     H2       HT       0.417000       1.00800           0
     24119 TIP3     2262     TIP3     OH2      OT      -0.834000       15.9994           0
     24120 TIP3     2262     TIP3     H1       HT       0.417000       1.00800           0
     24121 TIP3     2262     TIP3     H2       HT       0.417000       1.00800           0
     24122 TIP3     2263     TIP3     OH2      OT      -0.834000       15.9994           0
     24123 TIP3     2263     TIP3     H1       HT       0.417000       1.00800           0
     24124 TIP3     2263     TIP3     H2       HT       0.417000       1.00800           0
     24125 TIP3     2264     TIP3     OH2      OT      -0.834000       15.9994           0
     24126 TIP3     2264     TIP3     H1       HT       0.417000       1.00800           0
     24127 TIP3     2264     TIP3     H2       HT       0.417000       1.00800           0
     24128 TIP3     2265     TIP3     OH2      OT      -0.834000       15.9994           0
     24129 TIP3     2265     TIP3     H1       HT       0.417000       1.00800           0
     24130 TIP3     2265     TIP3     H2       HT       0.417000       1.00800           0
     24131 TIP3     2266     TIP3     OH2      OT      -0.834000       15.9994           0
     24132 TIP3     2266     TIP3     H1       HT       0.417000       1.00800           0
     24133 TIP3     2266     TIP3     H2       HT       0.417000       1.00800           0
     24134 TIP3     2267     TIP3     OH2      OT      -0.834000       15.9994           0
     24135 TIP3     2267     TIP3     H1       HT       0.417000       1.00800           0
     24136 TIP3     2267     TIP3     H2       HT       0.417000       1.00800           0
     24137 TIP3     2268     TIP3     OH2      OT      -0.834000       15.9994           0
     24138 TIP3     2268     TIP3     H1       HT       0.417000       1.00800           0
     24139 TIP3     2268     TIP3     H2       HT       0.417000       1.00800           0
     24140 TIP3     2269     TIP3     OH2      OT      -0.834000       15.9994           0
     24141 TIP3     2269     TIP3     H1       HT       0.417000       1.00800           0
     24142 TIP3     2269     TIP3     H2       HT       0.417000       1.00800           0
     24143 TIP3     2270     TIP3     OH2      OT      -0.834000       15.9994           0
     24144 TIP3     2270     TIP3     H1       HT       0.417000       1.00800           0
     24145 TIP3     2270     TIP3     H2       HT       0.417000       1.00800           0
     24146 TIP3     2271     TIP3     OH2      OT      -0.834000       15.9994           0
     24147 TIP3     2271     TIP3     H1       HT       0.417000       1.00800           0
     24148 TIP3     2271     TIP3     H2       HT       0.417000       1.00800           0
     24149 TIP3     2272     TIP3     OH2      OT      -0.834000       15.9994           0
     24150 TIP3     2272     TIP3     H1       HT       0.417000       1.00800           0
     24151 TIP3     2272     TIP3     H2       HT       0.417000       1.00800           0
     24152 TIP3     2273     TIP3     OH2      OT      -0.834000       15.9994           0
     24153 TIP3     2273     TIP3     H1       HT       0.417000       1.00800           0
     24154 TIP3     2273     TIP3     H2       HT       0.417000       1.00800           0
     24155 TIP3     2274     TIP3     OH2      OT      -0.834000       15.9994           0
     24156 TIP3     2274     TIP3     H1       HT       0.417000       1.00800           0
     24157 TIP3     2274     TIP3     H2       HT       0.417000       1.00800           0
     24158 TIP3     2275     TIP3     OH2      OT      -0.834000       15.9994           0
     24159 TIP3     2275     TIP3     H1       HT       0.417000       1.00800           0
     24160 TIP3     2275     TIP3     H2       HT       0.417000       1.00800           0
     24161 TIP3     2276     TIP3     OH2      OT      -0.834000       15.9994           0
     24162 TIP3     2276     TIP3     H1       HT       0.417000       1.00800           0
     24163 TIP3     2276     TIP3     H2       HT       0.417000       1.00800           0
     24164 TIP3     2277     TIP3     OH2      OT      -0.834000       15.9994           0
     24165 TIP3     2277     TIP3     H1       HT       0.417000       1.00800           0
     24166 TIP3     2277     TIP3     H2       HT       0.417000       1.00800           0
     24167 TIP3     2278     TIP3     OH2      OT      -0.834000       15.9994           0
     24168 TIP3     2278     TIP3     H1       HT       0.417000       1.00800           0
     24169 TIP3     2278     TIP3     H2       HT       0.417000       1.00800           0
     24170 TIP3     2279     TIP3     OH2      OT      -0.834000       15.9994           0
     24171 TIP3     2279     TIP3     H1       HT       0.417000       1.00800           0
     24172 TIP3     2279     TIP3     H2       HT       0.417000       1.00800           0
     24173 TIP3     2280     TIP3     OH2      OT      -0.834000       15.9994           0
     24174 TIP3     2280     TIP3     H1       HT       0.417000       1.00800           0
     24175 TIP3     2280     TIP3     H2       HT       0.417000       1.00800           0
     24176 TIP3     2281     TIP3     OH2      OT      -0.834000       15.9994           0
     24177 TIP3     2281     TIP3     H1       HT       0.417000       1.00800           0
     24178 TIP3     2281     TIP3     H2       HT       0.417000       1.00800           0
     24179 TIP3     2282     TIP3     OH2      OT      -0.834000       15.9994           0
     24180 TIP3     2282     TIP3     H1       HT       0.417000       1.00800           0
     24181 TIP3     2282     TIP3     H2       HT       0.417000       1.00800           0
     24182 TIP3     2283     TIP3     OH2      OT      -0.834000       15.9994           0
     24183 TIP3     2283     TIP3     H1       HT       0.417000       1.00800           0
     24184 TIP3     2283     TIP3     H2       HT       0.417000       1.00800           0
     24185 TIP3     2284     TIP3     OH2      OT      -0.834000       15.9994           0
     24186 TIP3     2284     TIP3     H1       HT       0.417000       1.00800           0
     24187 TIP3     2284     TIP3     H2       HT       0.417000       1.00800           0
     24188 TIP3     2285     TIP3     OH2      OT      -0.834000       15.9994           0
     24189 TIP3     2285     TIP3     H1       HT       0.417000       1.00800           0
     24190 TIP3     2285     TIP3     H2       HT       0.417000       1.00800           0
     24191 TIP3     2286     TIP3     OH2      OT      -0.834000       15.9994           0
     24192 TIP3     2286     TIP3     H1       HT       0.417000       1.00800           0
     24193 TIP3     2286     TIP3     H2       HT       0.417000       1.00800           0
     24194 TIP3     2287     TIP3     OH2      OT      -0.834000       15.9994           0
     24195 TIP3     2287     TIP3     H1       HT       0.417000       1.00800           0
     24196 TIP3     2287     TIP3     H2       HT       0.417000       1.00800           0
     24197 TIP3     2288     TIP3     OH2      OT      -0.834000       15.9994           0
     24198 TIP3     2288     TIP3     H1       HT       0.417000       1.00800           0
     24199 TIP3     2288     TIP3     H2       HT       0.417000       1.00800           0
     24200 TIP3     2289     TIP3     OH2      OT      -0.834000       15.9994           0
     24201 TIP3     2289     TIP3     H1       HT       0.417000       1.00800           0
     24202 TIP3     2289     TIP3     H2       HT       0.417000       1.00800           0
     24203 TIP3     2290     TIP3     OH2      OT      -0.834000       15.9994           0
     24204 TIP3     2290     TIP3     H1       HT       0.417000       1.00800           0
     24205 TIP3     2290     TIP3     H2       HT       0.417000       1.00800           0
     24206 TIP3     2291     TIP3     OH2      OT      -0.834000       15.9994           0
     24207 TIP3     2291     TIP3     H1       HT       0.417000       1.00800           0
     24208 TIP3     2291     TIP3     H2       HT       0.417000       1.00800           0
     24209 TIP3     2292     TIP3     OH2      OT      -0.834000       15.9994           0
     24210 TIP3     2292     TIP3     H1       HT       0.417000       1.00800           0
     24211 TIP3     2292     TIP3     H2       HT       0.417000       1.00800           0
     24212 TIP3     2293     TIP3     OH2      OT      -0.834000       15.9994           0
     24213 TIP3     2293     TIP3     H1       HT       0.417000       1.00800           0
     24214 TIP3     2293     TIP3     H2       HT       0.417000       1.00800           0
     24215 TIP3     2294     TIP3     OH2      OT      -0.834000       15.9994           0
     24216 TIP3     2294     TIP3     H1       HT       0.417000       1.00800           0
     24217 TIP3     2294     TIP3     H2       HT       0.417000       1.00800           0
     24218 TIP3     2295     TIP3     OH2      OT      -0.834000       15.9994           0
     24219 TIP3     2295     TIP3     H1       HT       0.417000       1.00800           0
     24220 TIP3     2295     TIP3     H2       HT       0.417000       1.00800           0
     24221 TIP3     2296     TIP3     OH2      OT      -0.834000       15.9994           0
     24222 TIP3     2296     TIP3     H1       HT       0.417000       1.00800           0
     24223 TIP3     2296     TIP3     H2       HT       0.417000       1.00800           0
     24224 TIP3     2297     TIP3     OH2      OT      -0.834000       15.9994           0
     24225 TIP3     2297     TIP3     H1       HT       0.417000       1.00800           0
     24226 TIP3     2297     TIP3     H2       HT       0.417000       1.00800           0
     24227 TIP3     2298     TIP3     OH2      OT      -0.834000       15.9994           0
     24228 TIP3     2298     TIP3     H1       HT       0.417000       1.00800           0
     24229 TIP3     2298     TIP3     H2       HT       0.417000       1.00800           0
     24230 TIP3     2299     TIP3     OH2      OT      -0.834000       15.9994           0
     24231 TIP3     2299     TIP3     H1       HT       0.417000       1.00800           0
     24232 TIP3     2299     TIP3     H2       HT       0.417000       1.00800           0
     24233 TIP3     2300     TIP3     OH2      OT      -0.834000       15.9994           0
     24234 TIP3     2300     TIP3     H1       HT       0.417000       1.00800           0
     24235 TIP3     2300     TIP3     H2       HT       0.417000       1.00800           0
     24236 TIP3     2301     TIP3     OH2      OT      -0.834000       15.9994           0
     24237 TIP3     2301     TIP3     H1       HT       0.417000       1.00800           0
     24238 TIP3     2301     TIP3     H2       HT       0.417000       1.00800           0
     24239 TIP3     2302     TIP3     OH2      OT      -0.834000       15.9994           0
     24240 TIP3     2302     TIP3     H1       HT       0.417000       1.00800           0
     24241 TIP3     2302     TIP3     H2       HT       0.417000       1.00800           0
     24242 TIP3     2303     TIP3     OH2      OT      -0.834000       15.9994           0
     24243 TIP3     2303     TIP3     H1       HT       0.417000       1.00800           0
     24244 TIP3     2303     TIP3     H2       HT       0.417000       1.00800           0
     24245 TIP3     2304     TIP3     OH2      OT      -0.834000       15.9994           0
     24246 TIP3     2304     TIP3     H1       HT       0.417000       1.00800           0
     24247 TIP3     2304     TIP3     H2       HT       0.417000       1.00800           0
     24248 TIP3     2305     TIP3     OH2      OT      -0.834000       15.9994           0
     24249 TIP3     2305     TIP3     H1       HT       0.417000       1.00800           0
     24250 TIP3     2305     TIP3     H2       HT       0.417000       1.00800           0
     24251 TIP3     2306     TIP3     OH2      OT      -0.834000       15.9994           0
     24252 TIP3     2306     TIP3     H1       HT       0.417000       1.00800           0
     24253 TIP3     2306     TIP3     H2       HT       0.417000       1.00800           0
     24254 TIP3     2307     TIP3     OH2      OT      -0.834000       15.9994           0
     24255 TIP3     2307     TIP3     H1       HT       0.417000       1.00800           0
     24256 TIP3     2307     TIP3     H2       HT       0.417000       1.00800           0
     24257 TIP3     2308     TIP3     OH2      OT      -0.834000       15.9994           0
     24258 TIP3     2308     TIP3     H1       HT       0.417000       1.00800           0
     24259 TIP3     2308     TIP3     H2       HT       0.417000       1.00800           0
     24260 TIP3     2309     TIP3     OH2      OT      -0.834000       15.9994           0
     24261 TIP3     2309     TIP3     H1       HT       0.417000       1.00800           0
     24262 TIP3     2309     TIP3     H2       HT       0.417000       1.00800           0
     24263 TIP3     2310     TIP3     OH2      OT      -0.834000       15.9994           0
     24264 TIP3     2310     TIP3     H1       HT       0.417000       1.00800           0
     24265 TIP3     2310     TIP3     H2       HT       0.417000       1.00800           0
     24266 TIP3     2311     TIP3     OH2      OT      -0.834000       15.9994           0
     24267 TIP3     2311     TIP3     H1       HT       0.417000       1.00800           0
     24268 TIP3     2311     TIP3     H2       HT       0.417000       1.00800           0
     24269 TIP3     2312     TIP3     OH2      OT      -0.834000       15.9994           0
     24270 TIP3     2312     TIP3     H1       HT       0.417000       1.00800           0
     24271 TIP3     2312     TIP3     H2       HT       0.417000       1.00800           0
     24272 TIP3     2313     TIP3     OH2      OT      -0.834000       15.9994           0
     24273 TIP3     2313     TIP3     H1       HT       0.417000       1.00800           0
     24274 TIP3     2313     TIP3     H2       HT       0.417000       1.00800           0
     24275 TIP3     2314     TIP3     OH2      OT      -0.834000       15.9994           0
     24276 TIP3     2314     TIP3     H1       HT       0.417000       1.00800           0
     24277 TIP3     2314     TIP3     H2       HT       0.417000       1.00800           0
     24278 TIP3     2315     TIP3     OH2      OT      -0.834000       15.9994           0
     24279 TIP3     2315     TIP3     H1       HT       0.417000       1.00800           0
     24280 TIP3     2315     TIP3     H2       HT       0.417000       1.00800           0
     24281 TIP3     2316     TIP3     OH2      OT      -0.834000       15.9994           0
     24282 TIP3     2316     TIP3     H1       HT       0.417000       1.00800           0
     24283 TIP3     2316     TIP3     H2       HT       0.417000       1.00800           0
     24284 TIP3     2317     TIP3     OH2      OT      -0.834000       15.9994           0
     24285 TIP3     2317     TIP3     H1       HT       0.417000       1.00800           0
     24286 TIP3     2317     TIP3     H2       HT       0.417000       1.00800           0
     24287 TIP3     2318     TIP3     OH2      OT      -0.834000       15.9994           0
     24288 TIP3     2318     TIP3     H1       HT       0.417000       1.00800           0
     24289 TIP3     2318     TIP3     H2       HT       0.417000       1.00800           0
     24290 TIP3     2319     TIP3     OH2      OT      -0.834000       15.9994           0
     24291 TIP3     2319     TIP3     H1       HT       0.417000       1.00800           0
     24292 TIP3     2319     TIP3     H2       HT       0.417000       1.00800           0
     24293 TIP3     2320     TIP3     OH2      OT      -0.834000       15.9994           0
     24294 TIP3     2320     TIP3     H1       HT       0.417000       1.00800           0
     24295 TIP3     2320     TIP3     H2       HT       0.417000       1.00800           0
     24296 TIP3     2321     TIP3     OH2      OT      -0.834000       15.9994           0
     24297 TIP3     2321     TIP3     H1       HT       0.417000       1.00800           0
     24298 TIP3     2321     TIP3     H2       HT       0.417000       1.00800           0
     24299 TIP3     2322     TIP3     OH2      OT      -0.834000       15.9994           0
     24300 TIP3     2322     TIP3     H1       HT       0.417000       1.00800           0
     24301 TIP3     2322     TIP3     H2       HT       0.417000       1.00800           0
     24302 TIP3     2323     TIP3     OH2      OT      -0.834000       15.9994           0
     24303 TIP3     2323     TIP3     H1       HT       0.417000       1.00800           0
     24304 TIP3     2323     TIP3     H2       HT       0.417000       1.00800           0
     24305 TIP3     2324     TIP3     OH2      OT      -0.834000       15.9994           0
     24306 TIP3     2324     TIP3     H1       HT       0.417000       1.00800           0
     24307 TIP3     2324     TIP3     H2       HT       0.417000       1.00800           0
     24308 TIP3     2325     TIP3     OH2      OT      -0.834000       15.9994           0
     24309 TIP3     2325     TIP3     H1       HT       0.417000       1.00800           0
     24310 TIP3     2325     TIP3     H2       HT       0.417000       1.00800           0
     24311 TIP3     2326     TIP3     OH2      OT      -0.834000       15.9994           0
     24312 TIP3     2326     TIP3     H1       HT       0.417000       1.00800           0
     24313 TIP3     2326     TIP3     H2       HT       0.417000       1.00800           0
     24314 TIP3     2327     TIP3     OH2      OT      -0.834000       15.9994           0
     24315 TIP3     2327     TIP3     H1       HT       0.417000       1.00800           0
     24316 TIP3     2327     TIP3     H2       HT       0.417000       1.00800           0
     24317 TIP3     2328     TIP3     OH2      OT      -0.834000       15.9994           0
     24318 TIP3     2328     TIP3     H1       HT       0.417000       1.00800           0
     24319 TIP3     2328     TIP3     H2       HT       0.417000       1.00800           0
     24320 TIP3     2329     TIP3     OH2      OT      -0.834000       15.9994           0
     24321 TIP3     2329     TIP3     H1       HT       0.417000       1.00800           0
     24322 TIP3     2329     TIP3     H2       HT       0.417000       1.00800           0
     24323 TIP3     2330     TIP3     OH2      OT      -0.834000       15.9994           0
     24324 TIP3     2330     TIP3     H1       HT       0.417000       1.00800           0
     24325 TIP3     2330     TIP3     H2       HT       0.417000       1.00800           0
     24326 TIP3     2331     TIP3     OH2      OT      -0.834000       15.9994           0
     24327 TIP3     2331     TIP3     H1       HT       0.417000       1.00800           0
     24328 TIP3     2331     TIP3     H2       HT       0.417000       1.00800           0
     24329 TIP3     2332     TIP3     OH2      OT      -0.834000       15.9994           0
     24330 TIP3     2332     TIP3     H1       HT       0.417000       1.00800           0
     24331 TIP3     2332     TIP3     H2       HT       0.417000       1.00800           0
     24332 TIP3     2333     TIP3     OH2      OT      -0.834000       15.9994           0
     24333 TIP3     2333     TIP3     H1       HT       0.417000       1.00800           0
     24334 TIP3     2333     TIP3     H2       HT       0.417000       1.00800           0
     24335 TIP3     2334     TIP3     OH2      OT      -0.834000       15.9994           0
     24336 TIP3     2334     TIP3     H1       HT       0.417000       1.00800           0
     24337 TIP3     2334     TIP3     H2       HT       0.417000       1.00800           0
     24338 TIP3     2335     TIP3     OH2      OT      -0.834000       15.9994           0
     24339 TIP3     2335     TIP3     H1       HT       0.417000       1.00800           0
     24340 TIP3     2335     TIP3     H2       HT       0.417000       1.00800           0
     24341 TIP3     2336     TIP3     OH2      OT      -0.834000       15.9994           0
     24342 TIP3     2336     TIP3     H1       HT       0.417000       1.00800           0
     24343 TIP3     2336     TIP3     H2       HT       0.417000       1.00800           0
     24344 TIP3     2337     TIP3     OH2      OT      -0.834000       15.9994           0
     24345 TIP3     2337     TIP3     H1       HT       0.417000       1.00800           0
     24346 TIP3     2337     TIP3     H2       HT       0.417000       1.00800           0
     24347 TIP3     2338     TIP3     OH2      OT      -0.834000       15.9994           0
     24348 TIP3     2338     TIP3     H1       HT       0.417000       1.00800           0
     24349 TIP3     2338     TIP3     H2       HT       0.417000       1.00800           0
     24350 TIP3     2339     TIP3     OH2      OT      -0.834000       15.9994           0
     24351 TIP3     2339     TIP3     H1       HT       0.417000       1.00800           0
     24352 TIP3     2339     TIP3     H2       HT       0.417000       1.00800           0
     24353 TIP3     2340     TIP3     OH2      OT      -0.834000       15.9994           0
     24354 TIP3     2340     TIP3     H1       HT       0.417000       1.00800           0
     24355 TIP3     2340     TIP3     H2       HT       0.417000       1.00800           0
     24356 TIP3     2341     TIP3     OH2      OT      -0.834000       15.9994           0
     24357 TIP3     2341     TIP3     H1       HT       0.417000       1.00800           0
     24358 TIP3     2341     TIP3     H2       HT       0.417000       1.00800           0
     24359 TIP3     2342     TIP3     OH2      OT      -0.834000       15.9994           0
     24360 TIP3     2342     TIP3     H1       HT       0.417000       1.00800           0
     24361 TIP3     2342     TIP3     H2       HT       0.417000       1.00800           0
     24362 TIP3     2343     TIP3     OH2      OT      -0.834000       15.9994           0
     24363 TIP3     2343     TIP3     H1       HT       0.417000       1.00800           0
     24364 TIP3     2343     TIP3     H2       HT       0.417000       1.00800           0
     24365 TIP3     2344     TIP3     OH2      OT      -0.834000       15.9994           0
     24366 TIP3     2344     TIP3     H1       HT       0.417000       1.00800           0
     24367 TIP3     2344     TIP3     H2       HT       0.417000       1.00800           0
     24368 TIP3     2345     TIP3     OH2      OT      -0.834000       15.9994           0
     24369 TIP3     2345     TIP3     H1       HT       0.417000       1.00800           0
     24370 TIP3     2345     TIP3     H2       HT       0.417000       1.00800           0
     24371 TIP3     2346     TIP3     OH2      OT      -0.834000       15.9994           0
     24372 TIP3     2346     TIP3     H1       HT       0.417000       1.00800           0
     24373 TIP3     2346     TIP3     H2       HT       0.417000       1.00800           0
     24374 TIP3     2347     TIP3     OH2      OT      -0.834000       15.9994           0
     24375 TIP3     2347     TIP3     H1       HT       0.417000       1.00800           0
     24376 TIP3     2347     TIP3     H2       HT       0.417000       1.00800           0
     24377 TIP3     2348     TIP3     OH2      OT      -0.834000       15.9994           0
     24378 TIP3     2348     TIP3     H1       HT       0.417000       1.00800           0
     24379 TIP3     2348     TIP3     H2       HT       0.417000       1.00800           0
     24380 TIP3     2349     TIP3     OH2      OT      -0.834000       15.9994           0
     24381 TIP3     2349     TIP3     H1       HT       0.417000       1.00800           0
     24382 TIP3     2349     TIP3     H2       HT       0.417000       1.00800           0
     24383 TIP3     2350     TIP3     OH2      OT      -0.834000       15.9994           0
     24384 TIP3     2350     TIP3     H1       HT       0.417000       1.00800           0
     24385 TIP3     2350     TIP3     H2       HT       0.417000       1.00800           0
     24386 TIP3     2351     TIP3     OH2      OT      -0.834000       15.9994           0
     24387 TIP3     2351     TIP3     H1       HT       0.417000       1.00800           0
     24388 TIP3     2351     TIP3     H2       HT       0.417000       1.00800           0
     24389 TIP3     2352     TIP3     OH2      OT      -0.834000       15.9994           0
     24390 TIP3     2352     TIP3     H1       HT       0.417000       1.00800           0
     24391 TIP3     2352     TIP3     H2       HT       0.417000       1.00800           0
     24392 TIP3     2353     TIP3     OH2      OT      -0.834000       15.9994           0
     24393 TIP3     2353     TIP3     H1       HT       0.417000       1.00800           0
     24394 TIP3     2353     TIP3     H2       HT       0.417000       1.00800           0
     24395 TIP3     2354     TIP3     OH2      OT      -0.834000       15.9994           0
     24396 TIP3     2354     TIP3     H1       HT       0.417000       1.00800           0
     24397 TIP3     2354     TIP3     H2       HT       0.417000       1.00800           0
     24398 TIP3     2355     TIP3     OH2      OT      -0.834000       15.9994           0
     24399 TIP3     2355     TIP3     H1       HT       0.417000       1.00800           0
     24400 TIP3     2355     TIP3     H2       HT       0.417000       1.00800           0
     24401 TIP3     2356     TIP3     OH2      OT      -0.834000       15.9994           0
     24402 TIP3     2356     TIP3     H1       HT       0.417000       1.00800           0
     24403 TIP3     2356     TIP3     H2       HT       0.417000       1.00800           0
     24404 TIP3     2357     TIP3     OH2      OT      -0.834000       15.9994           0
     24405 TIP3     2357     TIP3     H1       HT       0.417000       1.00800           0
     24406 TIP3     2357     TIP3     H2       HT       0.417000       1.00800           0
     24407 TIP3     2358     TIP3     OH2      OT      -0.834000       15.9994           0
     24408 TIP3     2358     TIP3     H1       HT       0.417000       1.00800           0
     24409 TIP3     2358     TIP3     H2       HT       0.417000       1.00800           0
     24410 TIP3     2359     TIP3     OH2      OT      -0.834000       15.9994           0
     24411 TIP3     2359     TIP3     H1       HT       0.417000       1.00800           0
     24412 TIP3     2359     TIP3     H2       HT       0.417000       1.00800           0
     24413 TIP3     2360     TIP3     OH2      OT      -0.834000       15.9994           0
     24414 TIP3     2360     TIP3     H1       HT       0.417000       1.00800           0
     24415 TIP3     2360     TIP3     H2       HT       0.417000       1.00800           0
     24416 TIP3     2361     TIP3     OH2      OT      -0.834000       15.9994           0
     24417 TIP3     2361     TIP3     H1       HT       0.417000       1.00800           0
     24418 TIP3     2361     TIP3     H2       HT       0.417000       1.00800           0
     24419 TIP3     2362     TIP3     OH2      OT      -0.834000       15.9994           0
     24420 TIP3     2362     TIP3     H1       HT       0.417000       1.00800           0
     24421 TIP3     2362     TIP3     H2       HT       0.417000       1.00800           0
     24422 TIP3     2363     TIP3     OH2      OT      -0.834000       15.9994           0
     24423 TIP3     2363     TIP3     H1       HT       0.417000       1.00800           0
     24424 TIP3     2363     TIP3     H2       HT       0.417000       1.00800           0
     24425 TIP3     2364     TIP3     OH2      OT      -0.834000       15.9994           0
     24426 TIP3     2364     TIP3     H1       HT       0.417000       1.00800           0
     24427 TIP3     2364     TIP3     H2       HT       0.417000       1.00800           0
     24428 TIP3     2365     TIP3     OH2      OT      -0.834000       15.9994           0
     24429 TIP3     2365     TIP3     H1       HT       0.417000       1.00800           0
     24430 TIP3     2365     TIP3     H2       HT       0.417000       1.00800           0
     24431 TIP3     2366     TIP3     OH2      OT      -0.834000       15.9994           0
     24432 TIP3     2366     TIP3     H1       HT       0.417000       1.00800           0
     24433 TIP3     2366     TIP3     H2       HT       0.417000       1.00800           0
     24434 TIP3     2367     TIP3     OH2      OT      -0.834000       15.9994           0
     24435 TIP3     2367     TIP3     H1       HT       0.417000       1.00800           0
     24436 TIP3     2367     TIP3     H2       HT       0.417000       1.00800           0
     24437 TIP3     2368     TIP3     OH2      OT      -0.834000       15.9994           0
     24438 TIP3     2368     TIP3     H1       HT       0.417000       1.00800           0
     24439 TIP3     2368     TIP3     H2       HT       0.417000       1.00800           0
     24440 TIP3     2369     TIP3     OH2      OT      -0.834000       15.9994           0
     24441 TIP3     2369     TIP3     H1       HT       0.417000       1.00800           0
     24442 TIP3     2369     TIP3     H2       HT       0.417000       1.00800           0
     24443 TIP3     2370     TIP3     OH2      OT      -0.834000       15.9994           0
     24444 TIP3     2370     TIP3     H1       HT       0.417000       1.00800           0
     24445 TIP3     2370     TIP3     H2       HT       0.417000       1.00800           0
     24446 TIP3     2371     TIP3     OH2      OT      -0.834000       15.9994           0
     24447 TIP3     2371     TIP3     H1       HT       0.417000       1.00800           0
     24448 TIP3     2371     TIP3     H2       HT       0.417000       1.00800           0
     24449 TIP3     2372     TIP3     OH2      OT      -0.834000       15.9994           0
     24450 TIP3     2372     TIP3     H1       HT       0.417000       1.00800           0
     24451 TIP3     2372     TIP3     H2       HT       0.417000       1.00800           0
     24452 TIP3     2373     TIP3     OH2      OT      -0.834000       15.9994           0
     24453 TIP3     2373     TIP3     H1       HT       0.417000       1.00800           0
     24454 TIP3     2373     TIP3     H2       HT       0.417000       1.00800           0
     24455 TIP3     2374     TIP3     OH2      OT      -0.834000       15.9994           0
     24456 TIP3     2374     TIP3     H1       HT       0.417000       1.00800           0
     24457 TIP3     2374     TIP3     H2       HT       0.417000       1.00800           0
     24458 TIP3     2375     TIP3     OH2      OT      -0.834000       15.9994           0
     24459 TIP3     2375     TIP3     H1       HT       0.417000       1.00800           0
     24460 TIP3     2375     TIP3     H2       HT       0.417000       1.00800           0
     24461 TIP3     2376     TIP3     OH2      OT      -0.834000       15.9994           0
     24462 TIP3     2376     TIP3     H1       HT       0.417000       1.00800           0
     24463 TIP3     2376     TIP3     H2       HT       0.417000       1.00800           0
     24464 TIP3     2377     TIP3     OH2      OT      -0.834000       15.9994           0
     24465 TIP3     2377     TIP3     H1       HT       0.417000       1.00800           0
     24466 TIP3     2377     TIP3     H2       HT       0.417000       1.00800           0
     24467 TIP3     2378     TIP3     OH2      OT      -0.834000       15.9994           0
     24468 TIP3     2378     TIP3     H1       HT       0.417000       1.00800           0
     24469 TIP3     2378     TIP3     H2       HT       0.417000       1.00800           0
     24470 TIP3     2379     TIP3     OH2      OT      -0.834000       15.9994           0
     24471 TIP3     2379     TIP3     H1       HT       0.417000       1.00800           0
     24472 TIP3     2379     TIP3     H2       HT       0.417000       1.00800           0
     24473 TIP3     2380     TIP3     OH2      OT      -0.834000       15.9994           0
     24474 TIP3     2380     TIP3     H1       HT       0.417000       1.00800           0
     24475 TIP3     2380     TIP3     H2       HT       0.417000       1.00800           0
     24476 TIP3     2381     TIP3     OH2      OT      -0.834000       15.9994           0
     24477 TIP3     2381     TIP3     H1       HT       0.417000       1.00800           0
     24478 TIP3     2381     TIP3     H2       HT       0.417000       1.00800           0
     24479 TIP3     2382     TIP3     OH2      OT      -0.834000       15.9994           0
     24480 TIP3     2382     TIP3     H1       HT       0.417000       1.00800           0
     24481 TIP3     2382     TIP3     H2       HT       0.417000       1.00800           0
     24482 TIP3     2383     TIP3     OH2      OT      -0.834000       15.9994           0
     24483 TIP3     2383     TIP3     H1       HT       0.417000       1.00800           0
     24484 TIP3     2383     TIP3     H2       HT       0.417000       1.00800           0
     24485 TIP3     2384     TIP3     OH2      OT      -0.834000       15.9994           0
     24486 TIP3     2384     TIP3     H1       HT       0.417000       1.00800           0
     24487 TIP3     2384     TIP3     H2       HT       0.417000       1.00800           0
     24488 TIP3     2385     TIP3     OH2      OT      -0.834000       15.9994           0
     24489 TIP3     2385     TIP3     H1       HT       0.417000       1.00800           0
     24490 TIP3     2385     TIP3     H2       HT       0.417000       1.00800           0
     24491 TIP3     2386     TIP3     OH2      OT      -0.834000       15.9994           0
     24492 TIP3     2386     TIP3     H1       HT       0.417000       1.00800           0
     24493 TIP3     2386     TIP3     H2       HT       0.417000       1.00800           0
     24494 TIP3     2387     TIP3     OH2      OT      -0.834000       15.9994           0
     24495 TIP3     2387     TIP3     H1       HT       0.417000       1.00800           0
     24496 TIP3     2387     TIP3     H2       HT       0.417000       1.00800           0
     24497 TIP3     2388     TIP3     OH2      OT      -0.834000       15.9994           0
     24498 TIP3     2388     TIP3     H1       HT       0.417000       1.00800           0
     24499 TIP3     2388     TIP3     H2       HT       0.417000       1.00800           0
     24500 TIP3     2389     TIP3     OH2      OT      -0.834000       15.9994           0
     24501 TIP3     2389     TIP3     H1       HT       0.417000       1.00800           0
     24502 TIP3     2389     TIP3     H2       HT       0.417000       1.00800           0
     24503 TIP3     2390     TIP3     OH2      OT      -0.834000       15.9994           0
     24504 TIP3     2390     TIP3     H1       HT       0.417000       1.00800           0
     24505 TIP3     2390     TIP3     H2       HT       0.417000       1.00800           0
     24506 TIP3     2391     TIP3     OH2      OT      -0.834000       15.9994           0
     24507 TIP3     2391     TIP3     H1       HT       0.417000       1.00800           0
     24508 TIP3     2391     TIP3     H2       HT       0.417000       1.00800           0
     24509 TIP3     2392     TIP3     OH2      OT      -0.834000       15.9994           0
     24510 TIP3     2392     TIP3     H1       HT       0.417000       1.00800           0
     24511 TIP3     2392     TIP3     H2       HT       0.417000       1.00800           0
     24512 TIP3     2393     TIP3     OH2      OT      -0.834000       15.9994           0
     24513 TIP3     2393     TIP3     H1       HT       0.417000       1.00800           0
     24514 TIP3     2393     TIP3     H2       HT       0.417000       1.00800           0
     24515 TIP3     2394     TIP3     OH2      OT      -0.834000       15.9994           0
     24516 TIP3     2394     TIP3     H1       HT       0.417000       1.00800           0
     24517 TIP3     2394     TIP3     H2       HT       0.417000       1.00800           0
     24518 TIP3     2395     TIP3     OH2      OT      -0.834000       15.9994           0
     24519 TIP3     2395     TIP3     H1       HT       0.417000       1.00800           0
     24520 TIP3     2395     TIP3     H2       HT       0.417000       1.00800           0
     24521 TIP3     2396     TIP3     OH2      OT      -0.834000       15.9994           0
     24522 TIP3     2396     TIP3     H1       HT       0.417000       1.00800           0
     24523 TIP3     2396     TIP3     H2       HT       0.417000       1.00800           0
     24524 TIP3     2397     TIP3     OH2      OT      -0.834000       15.9994           0
     24525 TIP3     2397     TIP3     H1       HT       0.417000       1.00800           0
     24526 TIP3     2397     TIP3     H2       HT       0.417000       1.00800           0
     24527 TIP3     2398     TIP3     OH2      OT      -0.834000       15.9994           0
     24528 TIP3     2398     TIP3     H1       HT       0.417000       1.00800           0
     24529 TIP3     2398     TIP3     H2       HT       0.417000       1.00800           0
     24530 TIP3     2399     TIP3     OH2      OT      -0.834000       15.9994           0
     24531 TIP3     2399     TIP3     H1       HT       0.417000       1.00800           0
     24532 TIP3     2399     TIP3     H2       HT       0.417000       1.00800           0
     24533 TIP3     2400     TIP3     OH2      OT      -0.834000       15.9994           0
     24534 TIP3     2400     TIP3     H1       HT       0.417000       1.00800           0
     24535 TIP3     2400     TIP3     H2       HT       0.417000       1.00800           0
     24536 TIP3     2401     TIP3     OH2      OT      -0.834000       15.9994           0
     24537 TIP3     2401     TIP3     H1       HT       0.417000       1.00800           0
     24538 TIP3     2401     TIP3     H2       HT       0.417000       1.00800           0
     24539 TIP3     2402     TIP3     OH2      OT      -0.834000       15.9994           0
     24540 TIP3     2402     TIP3     H1       HT       0.417000       1.00800           0
     24541 TIP3     2402     TIP3     H2       HT       0.417000       1.00800           0
     24542 TIP3     2403     TIP3     OH2      OT      -0.834000       15.9994           0
     24543 TIP3     2403     TIP3     H1       HT       0.417000       1.00800           0
     24544 TIP3     2403     TIP3     H2       HT       0.417000       1.00800           0
     24545 TIP3     2404     TIP3     OH2      OT      -0.834000       15.9994           0
     24546 TIP3     2404     TIP3     H1       HT       0.417000       1.00800           0
     24547 TIP3     2404     TIP3     H2       HT       0.417000       1.00800           0
     24548 TIP3     2405     TIP3     OH2      OT      -0.834000       15.9994           0
     24549 TIP3     2405     TIP3     H1       HT       0.417000       1.00800           0
     24550 TIP3     2405     TIP3     H2       HT       0.417000       1.00800           0
     24551 TIP3     2406     TIP3     OH2      OT      -0.834000       15.9994           0
     24552 TIP3     2406     TIP3     H1       HT       0.417000       1.00800           0
     24553 TIP3     2406     TIP3     H2       HT       0.417000       1.00800           0
     24554 TIP3     2407     TIP3     OH2      OT      -0.834000       15.9994           0
     24555 TIP3     2407     TIP3     H1       HT       0.417000       1.00800           0
     24556 TIP3     2407     TIP3     H2       HT       0.417000       1.00800           0
     24557 TIP3     2408     TIP3     OH2      OT      -0.834000       15.9994           0
     24558 TIP3     2408     TIP3     H1       HT       0.417000       1.00800           0
     24559 TIP3     2408     TIP3     H2       HT       0.417000       1.00800           0
     24560 TIP3     2409     TIP3     OH2      OT      -0.834000       15.9994           0
     24561 TIP3     2409     TIP3     H1       HT       0.417000       1.00800           0
     24562 TIP3     2409     TIP3     H2       HT       0.417000       1.00800           0
     24563 TIP3     2410     TIP3     OH2      OT      -0.834000       15.9994           0
     24564 TIP3     2410     TIP3     H1       HT       0.417000       1.00800           0
     24565 TIP3     2410     TIP3     H2       HT       0.417000       1.00800           0
     24566 TIP3     2411     TIP3     OH2      OT      -0.834000       15.9994           0
     24567 TIP3     2411     TIP3     H1       HT       0.417000       1.00800           0
     24568 TIP3     2411     TIP3     H2       HT       0.417000       1.00800           0
     24569 TIP3     2412     TIP3     OH2      OT      -0.834000       15.9994           0
     24570 TIP3     2412     TIP3     H1       HT       0.417000       1.00800           0
     24571 TIP3     2412     TIP3     H2       HT       0.417000       1.00800           0
     24572 TIP3     2413     TIP3     OH2      OT      -0.834000       15.9994           0
     24573 TIP3     2413     TIP3     H1       HT       0.417000       1.00800           0
     24574 TIP3     2413     TIP3     H2       HT       0.417000       1.00800           0
     24575 TIP3     2414     TIP3     OH2      OT      -0.834000       15.9994           0
     24576 TIP3     2414     TIP3     H1       HT       0.417000       1.00800           0
     24577 TIP3     2414     TIP3     H2       HT       0.417000       1.00800           0
     24578 TIP3     2415     TIP3     OH2      OT      -0.834000       15.9994           0
     24579 TIP3     2415     TIP3     H1       HT       0.417000       1.00800           0
     24580 TIP3     2415     TIP3     H2       HT       0.417000       1.00800           0
     24581 TIP3     2416     TIP3     OH2      OT      -0.834000       15.9994           0
     24582 TIP3     2416     TIP3     H1       HT       0.417000       1.00800           0
     24583 TIP3     2416     TIP3     H2       HT       0.417000       1.00800           0
     24584 TIP3     2417     TIP3     OH2      OT      -0.834000       15.9994           0
     24585 TIP3     2417     TIP3     H1       HT       0.417000       1.00800           0
     24586 TIP3     2417     TIP3     H2       HT       0.417000       1.00800           0
     24587 TIP3     2418     TIP3     OH2      OT      -0.834000       15.9994           0
     24588 TIP3     2418     TIP3     H1       HT       0.417000       1.00800           0
     24589 TIP3     2418     TIP3     H2       HT       0.417000       1.00800           0
     24590 TIP3     2419     TIP3     OH2      OT      -0.834000       15.9994           0
     24591 TIP3     2419     TIP3     H1       HT       0.417000       1.00800           0
     24592 TIP3     2419     TIP3     H2       HT       0.417000       1.00800           0
     24593 TIP3     2420     TIP3     OH2      OT      -0.834000       15.9994           0
     24594 TIP3     2420     TIP3     H1       HT       0.417000       1.00800           0
     24595 TIP3     2420     TIP3     H2       HT       0.417000       1.00800           0
     24596 TIP3     2421     TIP3     OH2      OT      -0.834000       15.9994           0
     24597 TIP3     2421     TIP3     H1       HT       0.417000       1.00800           0
     24598 TIP3     2421     TIP3     H2       HT       0.417000       1.00800           0
     24599 TIP3     2422     TIP3     OH2      OT      -0.834000       15.9994           0
     24600 TIP3     2422     TIP3     H1       HT       0.417000       1.00800           0
     24601 TIP3     2422     TIP3     H2       HT       0.417000       1.00800           0
     24602 TIP3     2423     TIP3     OH2      OT      -0.834000       15.9994           0
     24603 TIP3     2423     TIP3     H1       HT       0.417000       1.00800           0
     24604 TIP3     2423     TIP3     H2       HT       0.417000       1.00800           0
     24605 TIP3     2424     TIP3     OH2      OT      -0.834000       15.9994           0
     24606 TIP3     2424     TIP3     H1       HT       0.417000       1.00800           0
     24607 TIP3     2424     TIP3     H2       HT       0.417000       1.00800           0
     24608 TIP3     2425     TIP3     OH2      OT      -0.834000       15.9994           0
     24609 TIP3     2425     TIP3     H1       HT       0.417000       1.00800           0
     24610 TIP3     2425     TIP3     H2       HT       0.417000       1.00800           0
     24611 TIP3     2426     TIP3     OH2      OT      -0.834000       15.9994           0
     24612 TIP3     2426     TIP3     H1       HT       0.417000       1.00800           0
     24613 TIP3     2426     TIP3     H2       HT       0.417000       1.00800           0
     24614 TIP3     2427     TIP3     OH2      OT      -0.834000       15.9994           0
     24615 TIP3     2427     TIP3     H1       HT       0.417000       1.00800           0
     24616 TIP3     2427     TIP3     H2       HT       0.417000       1.00800           0
     24617 TIP3     2428     TIP3     OH2      OT      -0.834000       15.9994           0
     24618 TIP3     2428     TIP3     H1       HT       0.417000       1.00800           0
     24619 TIP3     2428     TIP3     H2       HT       0.417000       1.00800           0
     24620 TIP3     2429     TIP3     OH2      OT      -0.834000       15.9994           0
     24621 TIP3     2429     TIP3     H1       HT       0.417000       1.00800           0
     24622 TIP3     2429     TIP3     H2       HT       0.417000       1.00800           0
     24623 TIP3     2430     TIP3     OH2      OT      -0.834000       15.9994           0
     24624 TIP3     2430     TIP3     H1       HT       0.417000       1.00800           0
     24625 TIP3     2430     TIP3     H2       HT       0.417000       1.00800           0
     24626 TIP3     2431     TIP3     OH2      OT      -0.834000       15.9994           0
     24627 TIP3     2431     TIP3     H1       HT       0.417000       1.00800           0
     24628 TIP3     2431     TIP3     H2       HT       0.417000       1.00800           0
     24629 TIP3     2432     TIP3     OH2      OT      -0.834000       15.9994           0
     24630 TIP3     2432     TIP3     H1       HT       0.417000       1.00800           0
     24631 TIP3     2432     TIP3     H2       HT       0.417000       1.00800           0
     24632 TIP3     2433     TIP3     OH2      OT      -0.834000       15.9994           0
     24633 TIP3     2433     TIP3     H1       HT       0.417000       1.00800           0
     24634 TIP3     2433     TIP3     H2       HT       0.417000       1.00800           0
     24635 TIP3     2434     TIP3     OH2      OT      -0.834000       15.9994           0
     24636 TIP3     2434     TIP3     H1       HT       0.417000       1.00800           0
     24637 TIP3     2434     TIP3     H2       HT       0.417000       1.00800           0
     24638 TIP3     2435     TIP3     OH2      OT      -0.834000       15.9994           0
     24639 TIP3     2435     TIP3     H1       HT       0.417000       1.00800           0
     24640 TIP3     2435     TIP3     H2       HT       0.417000       1.00800           0
     24641 TIP3     2436     TIP3     OH2      OT      -0.834000       15.9994           0
     24642 TIP3     2436     TIP3     H1       HT       0.417000       1.00800           0
     24643 TIP3     2436     TIP3     H2       HT       0.417000       1.00800           0
     24644 TIP3     2437     TIP3     OH2      OT      -0.834000       15.9994           0
     24645 TIP3     2437     TIP3     H1       HT       0.417000       1.00800           0
     24646 TIP3     2437     TIP3     H2       HT       0.417000       1.00800           0
     24647 TIP3     2438     TIP3     OH2      OT      -0.834000       15.9994           0
     24648 TIP3     2438     TIP3     H1       HT       0.417000       1.00800           0
     24649 TIP3     2438     TIP3     H2       HT       0.417000       1.00800           0
     24650 TIP3     2439     TIP3     OH2      OT      -0.834000       15.9994           0
     24651 TIP3     2439     TIP3     H1       HT       0.417000       1.00800           0
     24652 TIP3     2439     TIP3     H2       HT       0.417000       1.00800           0
     24653 TIP3     2440     TIP3     OH2      OT      -0.834000       15.9994           0
     24654 TIP3     2440     TIP3     H1       HT       0.417000       1.00800           0
     24655 TIP3     2440     TIP3     H2       HT       0.417000       1.00800           0
     24656 TIP3     2441     TIP3     OH2      OT      -0.834000       15.9994           0
     24657 TIP3     2441     TIP3     H1       HT       0.417000       1.00800           0
     24658 TIP3     2441     TIP3     H2       HT       0.417000       1.00800           0
     24659 TIP3     2442     TIP3     OH2      OT      -0.834000       15.9994           0
     24660 TIP3     2442     TIP3     H1       HT       0.417000       1.00800           0
     24661 TIP3     2442     TIP3     H2       HT       0.417000       1.00800           0
     24662 TIP3     2443     TIP3     OH2      OT      -0.834000       15.9994           0
     24663 TIP3     2443     TIP3     H1       HT       0.417000       1.00800           0
     24664 TIP3     2443     TIP3     H2       HT       0.417000       1.00800           0
     24665 TIP3     2444     TIP3     OH2      OT      -0.834000       15.9994           0
     24666 TIP3     2444     TIP3     H1       HT       0.417000       1.00800           0
     24667 TIP3     2444     TIP3     H2       HT       0.417000       1.00800           0
     24668 TIP3     2445     TIP3     OH2      OT      -0.834000       15.9994           0
     24669 TIP3     2445     TIP3     H1       HT       0.417000       1.00800           0
     24670 TIP3     2445     TIP3     H2       HT       0.417000       1.00800           0
     24671 TIP3     2446     TIP3     OH2      OT      -0.834000       15.9994           0
     24672 TIP3     2446     TIP3     H1       HT       0.417000       1.00800           0
     24673 TIP3     2446     TIP3     H2       HT       0.417000       1.00800           0
     24674 TIP3     2447     TIP3     OH2      OT      -0.834000       15.9994           0
     24675 TIP3     2447     TIP3     H1       HT       0.417000       1.00800           0
     24676 TIP3     2447     TIP3     H2       HT       0.417000       1.00800           0
     24677 TIP3     2448     TIP3     OH2      OT      -0.834000       15.9994           0
     24678 TIP3     2448     TIP3     H1       HT       0.417000       1.00800           0
     24679 TIP3     2448     TIP3     H2       HT       0.417000       1.00800           0
     24680 TIP3     2449     TIP3     OH2      OT      -0.834000       15.9994           0
     24681 TIP3     2449     TIP3     H1       HT       0.417000       1.00800           0
     24682 TIP3     2449     TIP3     H2       HT       0.417000       1.00800           0
     24683 TIP3     2450     TIP3     OH2      OT      -0.834000       15.9994           0
     24684 TIP3     2450     TIP3     H1       HT       0.417000       1.00800           0
     24685 TIP3     2450     TIP3     H2       HT       0.417000       1.00800           0
     24686 TIP3     2451     TIP3     OH2      OT      -0.834000       15.9994           0
     24687 TIP3     2451     TIP3     H1       HT       0.417000       1.00800           0
     24688 TIP3     2451     TIP3     H2       HT       0.417000       1.00800           0
     24689 TIP3     2452     TIP3     OH2      OT      -0.834000       15.9994           0
     24690 TIP3     2452     TIP3     H1       HT       0.417000       1.00800           0
     24691 TIP3     2452     TIP3     H2       HT       0.417000       1.00800           0
     24692 TIP3     2453     TIP3     OH2      OT      -0.834000       15.9994           0
     24693 TIP3     2453     TIP3     H1       HT       0.417000       1.00800           0
     24694 TIP3     2453     TIP3     H2       HT       0.417000       1.00800           0
     24695 TIP3     2454     TIP3     OH2      OT      -0.834000       15.9994           0
     24696 TIP3     2454     TIP3     H1       HT       0.417000       1.00800           0
     24697 TIP3     2454     TIP3     H2       HT       0.417000       1.00800           0
     24698 TIP3     2455     TIP3     OH2      OT      -0.834000       15.9994           0
     24699 TIP3     2455     TIP3     H1       HT       0.417000       1.00800           0
     24700 TIP3     2455     TIP3     H2       HT       0.417000       1.00800           0
     24701 TIP3     2456     TIP3     OH2      OT      -0.834000       15.9994           0
     24702 TIP3     2456     TIP3     H1       HT       0.417000       1.00800           0
     24703 TIP3     2456     TIP3     H2       HT       0.417000       1.00800           0
     24704 TIP3     2457     TIP3     OH2      OT      -0.834000       15.9994           0
     24705 TIP3     2457     TIP3     H1       HT       0.417000       1.00800           0
     24706 TIP3     2457     TIP3     H2       HT       0.417000       1.00800           0
     24707 TIP3     2458     TIP3     OH2      OT      -0.834000       15.9994           0
     24708 TIP3     2458     TIP3     H1       HT       0.417000       1.00800           0
     24709 TIP3     2458     TIP3     H2       HT       0.417000       1.00800           0
     24710 TIP3     2459     TIP3     OH2      OT      -0.834000       15.9994           0
     24711 TIP3     2459     TIP3     H1       HT       0.417000       1.00800           0
     24712 TIP3     2459     TIP3     H2       HT       0.417000       1.00800           0
     24713 TIP3     2460     TIP3     OH2      OT      -0.834000       15.9994           0
     24714 TIP3     2460     TIP3     H1       HT       0.417000       1.00800           0
     24715 TIP3     2460     TIP3     H2       HT       0.417000       1.00800           0
     24716 TIP3     2461     TIP3     OH2      OT      -0.834000       15.9994           0
     24717 TIP3     2461     TIP3     H1       HT       0.417000       1.00800           0
     24718 TIP3     2461     TIP3     H2       HT       0.417000       1.00800           0
     24719 TIP3     2462     TIP3     OH2      OT      -0.834000       15.9994           0
     24720 TIP3     2462     TIP3     H1       HT       0.417000       1.00800           0
     24721 TIP3     2462     TIP3     H2       HT       0.417000       1.00800           0
     24722 TIP3     2463     TIP3     OH2      OT      -0.834000       15.9994           0
     24723 TIP3     2463     TIP3     H1       HT       0.417000       1.00800           0
     24724 TIP3     2463     TIP3     H2       HT       0.417000       1.00800           0
     24725 TIP3     2464     TIP3     OH2      OT      -0.834000       15.9994           0
     24726 TIP3     2464     TIP3     H1       HT       0.417000       1.00800           0
     24727 TIP3     2464     TIP3     H2       HT       0.417000       1.00800           0
     24728 TIP3     2465     TIP3     OH2      OT      -0.834000       15.9994           0
     24729 TIP3     2465     TIP3     H1       HT       0.417000       1.00800           0
     24730 TIP3     2465     TIP3     H2       HT       0.417000       1.00800           0
     24731 TIP3     2466     TIP3     OH2      OT      -0.834000       15.9994           0
     24732 TIP3     2466     TIP3     H1       HT       0.417000       1.00800           0
     24733 TIP3     2466     TIP3     H2       HT       0.417000       1.00800           0
     24734 TIP3     2467     TIP3     OH2      OT      -0.834000       15.9994           0
     24735 TIP3     2467     TIP3     H1       HT       0.417000       1.00800           0
     24736 TIP3     2467     TIP3     H2       HT       0.417000       1.00800           0
     24737 TIP3     2468     TIP3     OH2      OT      -0.834000       15.9994           0
     24738 TIP3     2468     TIP3     H1       HT       0.417000       1.00800           0
     24739 TIP3     2468     TIP3     H2       HT       0.417000       1.00800           0
     24740 TIP3     2469     TIP3     OH2      OT      -0.834000       15.9994           0
     24741 TIP3     2469     TIP3     H1       HT       0.417000       1.00800           0
     24742 TIP3     2469     TIP3     H2       HT       0.417000       1.00800           0
     24743 TIP3     2470     TIP3     OH2      OT      -0.834000       15.9994           0
     24744 TIP3     2470     TIP3     H1       HT       0.417000       1.00800           0
     24745 TIP3     2470     TIP3     H2       HT       0.417000       1.00800           0
     24746 TIP3     2471     TIP3     OH2      OT      -0.834000       15.9994           0
     24747 TIP3     2471     TIP3     H1       HT       0.417000       1.00800           0
     24748 TIP3     2471     TIP3     H2       HT       0.417000       1.00800           0
     24749 TIP3     2472     TIP3     OH2      OT      -0.834000       15.9994           0
     24750 TIP3     2472     TIP3     H1       HT       0.417000       1.00800           0
     24751 TIP3     2472     TIP3     H2       HT       0.417000       1.00800           0
     24752 TIP3     2473     TIP3     OH2      OT      -0.834000       15.9994           0
     24753 TIP3     2473     TIP3     H1       HT       0.417000       1.00800           0
     24754 TIP3     2473     TIP3     H2       HT       0.417000       1.00800           0
     24755 TIP3     2474     TIP3     OH2      OT      -0.834000       15.9994           0
     24756 TIP3     2474     TIP3     H1       HT       0.417000       1.00800           0
     24757 TIP3     2474     TIP3     H2       HT       0.417000       1.00800           0
     24758 TIP3     2475     TIP3     OH2      OT      -0.834000       15.9994           0
     24759 TIP3     2475     TIP3     H1       HT       0.417000       1.00800           0
     24760 TIP3     2475     TIP3     H2       HT       0.417000       1.00800           0
     24761 TIP3     2476     TIP3     OH2      OT      -0.834000       15.9994           0
     24762 TIP3     2476     TIP3     H1       HT       0.417000       1.00800           0
     24763 TIP3     2476     TIP3     H2       HT       0.417000       1.00800           0
     24764 TIP3     2477     TIP3     OH2      OT      -0.834000       15.9994           0
     24765 TIP3     2477     TIP3     H1       HT       0.417000       1.00800           0
     24766 TIP3     2477     TIP3     H2       HT       0.417000       1.00800           0
     24767 TIP3     2478     TIP3     OH2      OT      -0.834000       15.9994           0
     24768 TIP3     2478     TIP3     H1       HT       0.417000       1.00800           0
     24769 TIP3     2478     TIP3     H2       HT       0.417000       1.00800           0
     24770 TIP3     2479     TIP3     OH2      OT      -0.834000       15.9994           0
     24771 TIP3     2479     TIP3     H1       HT       0.417000       1.00800           0
     24772 TIP3     2479     TIP3     H2       HT       0.417000       1.00800           0
     24773 TIP3     2480     TIP3     OH2      OT      -0.834000       15.9994           0
     24774 TIP3     2480     TIP3     H1       HT       0.417000       1.00800           0
     24775 TIP3     2480     TIP3     H2       HT       0.417000       1.00800           0
     24776 TIP3     2481     TIP3     OH2      OT      -0.834000       15.9994           0
     24777 TIP3     2481     TIP3     H1       HT       0.417000       1.00800           0
     24778 TIP3     2481     TIP3     H2       HT       0.417000       1.00800           0
     24779 TIP3     2482     TIP3     OH2      OT      -0.834000       15.9994           0
     24780 TIP3     2482     TIP3     H1       HT       0.417000       1.00800           0
     24781 TIP3     2482     TIP3     H2       HT       0.417000       1.00800           0
     24782 TIP3     2483     TIP3     OH2      OT      -0.834000       15.9994           0
     24783 TIP3     2483     TIP3     H1       HT       0.417000       1.00800           0
     24784 TIP3     2483     TIP3     H2       HT       0.417000       1.00800           0
     24785 TIP3     2484     TIP3     OH2      OT      -0.834000       15.9994           0
     24786 TIP3     2484     TIP3     H1       HT       0.417000       1.00800           0
     24787 TIP3     2484     TIP3     H2       HT       0.417000       1.00800           0
     24788 TIP3     2485     TIP3     OH2      OT      -0.834000       15.9994           0
     24789 TIP3     2485     TIP3     H1       HT       0.417000       1.00800           0
     24790 TIP3     2485     TIP3     H2       HT       0.417000       1.00800           0
     24791 TIP3     2486     TIP3     OH2      OT      -0.834000       15.9994           0
     24792 TIP3     2486     TIP3     H1       HT       0.417000       1.00800           0
     24793 TIP3     2486     TIP3     H2       HT       0.417000       1.00800           0
     24794 TIP3     2487     TIP3     OH2      OT      -0.834000       15.9994           0
     24795 TIP3     2487     TIP3     H1       HT       0.417000       1.00800           0
     24796 TIP3     2487     TIP3     H2       HT       0.417000       1.00800           0
     24797 TIP3     2488     TIP3     OH2      OT      -0.834000       15.9994           0
     24798 TIP3     2488     TIP3     H1       HT       0.417000       1.00800           0
     24799 TIP3     2488     TIP3     H2       HT       0.417000       1.00800           0
     24800 TIP3     2489     TIP3     OH2      OT      -0.834000       15.9994           0
     24801 TIP3     2489     TIP3     H1       HT       0.417000       1.00800           0
     24802 TIP3     2489     TIP3     H2       HT       0.417000       1.00800           0
     24803 TIP3     2490     TIP3     OH2      OT      -0.834000       15.9994           0
     24804 TIP3     2490     TIP3     H1       HT       0.417000       1.00800           0
     24805 TIP3     2490     TIP3     H2       HT       0.417000       1.00800           0
     24806 TIP3     2491     TIP3     OH2      OT      -0.834000       15.9994           0
     24807 TIP3     2491     TIP3     H1       HT       0.417000       1.00800           0
     24808 TIP3     2491     TIP3     H2       HT       0.417000       1.00800           0
     24809 TIP3     2492     TIP3     OH2      OT      -0.834000       15.9994           0
     24810 TIP3     2492     TIP3     H1       HT       0.417000       1.00800           0
     24811 TIP3     2492     TIP3     H2       HT       0.417000       1.00800           0
     24812 TIP3     2493     TIP3     OH2      OT      -0.834000       15.9994           0
     24813 TIP3     2493     TIP3     H1       HT       0.417000       1.00800           0
     24814 TIP3     2493     TIP3     H2       HT       0.417000       1.00800           0
     24815 TIP3     2494     TIP3     OH2      OT      -0.834000       15.9994           0
     24816 TIP3     2494     TIP3     H1       HT       0.417000       1.00800           0
     24817 TIP3     2494     TIP3     H2       HT       0.417000       1.00800           0
     24818 TIP3     2495     TIP3     OH2      OT      -0.834000       15.9994           0
     24819 TIP3     2495     TIP3     H1       HT       0.417000       1.00800           0
     24820 TIP3     2495     TIP3     H2       HT       0.417000       1.00800           0
     24821 TIP3     2496     TIP3     OH2      OT      -0.834000       15.9994           0
     24822 TIP3     2496     TIP3     H1       HT       0.417000       1.00800           0
     24823 TIP3     2496     TIP3     H2       HT       0.417000       1.00800           0
     24824 TIP3     2497     TIP3     OH2      OT      -0.834000       15.9994           0
     24825 TIP3     2497     TIP3     H1       HT       0.417000       1.00800           0
     24826 TIP3     2497     TIP3     H2       HT       0.417000       1.00800           0
     24827 TIP3     2498     TIP3     OH2      OT      -0.834000       15.9994           0
     24828 TIP3     2498     TIP3     H1       HT       0.417000       1.00800           0
     24829 TIP3     2498     TIP3     H2       HT       0.417000       1.00800           0
     24830 TIP3     2499     TIP3     OH2      OT      -0.834000       15.9994           0
     24831 TIP3     2499     TIP3     H1       HT       0.417000       1.00800           0
     24832 TIP3     2499     TIP3     H2       HT       0.417000       1.00800           0
     24833 TIP3     2500     TIP3     OH2      OT      -0.834000       15.9994           0
     24834 TIP3     2500     TIP3     H1       HT       0.417000       1.00800           0
     24835 TIP3     2500     TIP3     H2       HT       0.417000       1.00800           0
     24836 TIP3     2501     TIP3     OH2      OT      -0.834000       15.9994           0
     24837 TIP3     2501     TIP3     H1       HT       0.417000       1.00800           0
     24838 TIP3     2501     TIP3     H2       HT       0.417000       1.00800           0
     24839 TIP3     2502     TIP3     OH2      OT      -0.834000       15.9994           0
     24840 TIP3     2502     TIP3     H1       HT       0.417000       1.00800           0
     24841 TIP3     2502     TIP3     H2       HT       0.417000       1.00800           0
     24842 TIP3     2503     TIP3     OH2      OT      -0.834000       15.9994           0
     24843 TIP3     2503     TIP3     H1       HT       0.417000       1.00800           0
     24844 TIP3     2503     TIP3     H2       HT       0.417000       1.00800           0
     24845 TIP3     2504     TIP3     OH2      OT      -0.834000       15.9994           0
     24846 TIP3     2504     TIP3     H1       HT       0.417000       1.00800           0
     24847 TIP3     2504     TIP3     H2       HT       0.417000       1.00800           0
     24848 TIP3     2505     TIP3     OH2      OT      -0.834000       15.9994           0
     24849 TIP3     2505     TIP3     H1       HT       0.417000       1.00800           0
     24850 TIP3     2505     TIP3     H2       HT       0.417000       1.00800           0
     24851 TIP3     2506     TIP3     OH2      OT      -0.834000       15.9994           0
     24852 TIP3     2506     TIP3     H1       HT       0.417000       1.00800           0
     24853 TIP3     2506     TIP3     H2       HT       0.417000       1.00800           0
     24854 TIP3     2507     TIP3     OH2      OT      -0.834000       15.9994           0
     24855 TIP3     2507     TIP3     H1       HT       0.417000       1.00800           0
     24856 TIP3     2507     TIP3     H2       HT       0.417000       1.00800           0
     24857 TIP3     2508     TIP3     OH2      OT      -0.834000       15.9994           0
     24858 TIP3     2508     TIP3     H1       HT       0.417000       1.00800           0
     24859 TIP3     2508     TIP3     H2       HT       0.417000       1.00800           0
     24860 TIP3     2509     TIP3     OH2      OT      -0.834000       15.9994           0
     24861 TIP3     2509     TIP3     H1       HT       0.417000       1.00800           0
     24862 TIP3     2509     TIP3     H2       HT       0.417000       1.00800           0
     24863 TIP3     2510     TIP3     OH2      OT      -0.834000       15.9994           0
     24864 TIP3     2510     TIP3     H1       HT       0.417000       1.00800           0
     24865 TIP3     2510     TIP3     H2       HT       0.417000       1.00800           0
     24866 TIP3     2511     TIP3     OH2      OT      -0.834000       15.9994           0
     24867 TIP3     2511     TIP3     H1       HT       0.417000       1.00800           0
     24868 TIP3     2511     TIP3     H2       HT       0.417000       1.00800           0
     24869 TIP3     2512     TIP3     OH2      OT      -0.834000       15.9994           0
     24870 TIP3     2512     TIP3     H1       HT       0.417000       1.00800           0
     24871 TIP3     2512     TIP3     H2       HT       0.417000       1.00800           0
     24872 TIP3     2513     TIP3     OH2      OT      -0.834000       15.9994           0
     24873 TIP3     2513     TIP3     H1       HT       0.417000       1.00800           0
     24874 TIP3     2513     TIP3     H2       HT       0.417000       1.00800           0
     24875 TIP3     2514     TIP3     OH2      OT      -0.834000       15.9994           0
     24876 TIP3     2514     TIP3     H1       HT       0.417000       1.00800           0
     24877 TIP3     2514     TIP3     H2       HT       0.417000       1.00800           0
     24878 TIP3     2515     TIP3     OH2      OT      -0.834000       15.9994           0
     24879 TIP3     2515     TIP3     H1       HT       0.417000       1.00800           0
     24880 TIP3     2515     TIP3     H2       HT       0.417000       1.00800           0
     24881 TIP3     2516     TIP3     OH2      OT      -0.834000       15.9994           0
     24882 TIP3     2516     TIP3     H1       HT       0.417000       1.00800           0
     24883 TIP3     2516     TIP3     H2       HT       0.417000       1.00800           0
     24884 TIP3     2517     TIP3     OH2      OT      -0.834000       15.9994           0
     24885 TIP3     2517     TIP3     H1       HT       0.417000       1.00800           0
     24886 TIP3     2517     TIP3     H2       HT       0.417000       1.00800           0
     24887 TIP3     2518     TIP3     OH2      OT      -0.834000       15.9994           0
     24888 TIP3     2518     TIP3     H1       HT       0.417000       1.00800           0
     24889 TIP3     2518     TIP3     H2       HT       0.417000       1.00800           0
     24890 TIP3     2519     TIP3     OH2      OT      -0.834000       15.9994           0
     24891 TIP3     2519     TIP3     H1       HT       0.417000       1.00800           0
     24892 TIP3     2519     TIP3     H2       HT       0.417000       1.00800           0
     24893 TIP3     2520     TIP3     OH2      OT      -0.834000       15.9994           0
     24894 TIP3     2520     TIP3     H1       HT       0.417000       1.00800           0
     24895 TIP3     2520     TIP3     H2       HT       0.417000       1.00800           0
     24896 TIP3     2521     TIP3     OH2      OT      -0.834000       15.9994           0
     24897 TIP3     2521     TIP3     H1       HT       0.417000       1.00800           0
     24898 TIP3     2521     TIP3     H2       HT       0.417000       1.00800           0
     24899 TIP3     2522     TIP3     OH2      OT      -0.834000       15.9994           0
     24900 TIP3     2522     TIP3     H1       HT       0.417000       1.00800           0
     24901 TIP3     2522     TIP3     H2       HT       0.417000       1.00800           0
     24902 TIP3     2523     TIP3     OH2      OT      -0.834000       15.9994           0
     24903 TIP3     2523     TIP3     H1       HT       0.417000       1.00800           0
     24904 TIP3     2523     TIP3     H2       HT       0.417000       1.00800           0
     24905 TIP3     2524     TIP3     OH2      OT      -0.834000       15.9994           0
     24906 TIP3     2524     TIP3     H1       HT       0.417000       1.00800           0
     24907 TIP3     2524     TIP3     H2       HT       0.417000       1.00800           0
     24908 TIP3     2525     TIP3     OH2      OT      -0.834000       15.9994           0
     24909 TIP3     2525     TIP3     H1       HT       0.417000       1.00800           0
     24910 TIP3     2525     TIP3     H2       HT       0.417000       1.00800           0
     24911 TIP3     2526     TIP3     OH2      OT      -0.834000       15.9994           0
     24912 TIP3     2526     TIP3     H1       HT       0.417000       1.00800           0
     24913 TIP3     2526     TIP3     H2       HT       0.417000       1.00800           0
     24914 TIP3     2527     TIP3     OH2      OT      -0.834000       15.9994           0
     24915 TIP3     2527     TIP3     H1       HT       0.417000       1.00800           0
     24916 TIP3     2527     TIP3     H2       HT       0.417000       1.00800           0
     24917 TIP3     2528     TIP3     OH2      OT      -0.834000       15.9994           0
     24918 TIP3     2528     TIP3     H1       HT       0.417000       1.00800           0
     24919 TIP3     2528     TIP3     H2       HT       0.417000       1.00800           0
     24920 TIP3     2529     TIP3     OH2      OT      -0.834000       15.9994           0
     24921 TIP3     2529     TIP3     H1       HT       0.417000       1.00800           0
     24922 TIP3     2529     TIP3     H2       HT       0.417000       1.00800           0
     24923 TIP3     2530     TIP3     OH2      OT      -0.834000       15.9994           0
     24924 TIP3     2530     TIP3     H1       HT       0.417000       1.00800           0
     24925 TIP3     2530     TIP3     H2       HT       0.417000       1.00800           0
     24926 TIP3     2531     TIP3     OH2      OT      -0.834000       15.9994           0
     24927 TIP3     2531     TIP3     H1       HT       0.417000       1.00800           0
     24928 TIP3     2531     TIP3     H2       HT       0.417000       1.00800           0
     24929 TIP3     2532     TIP3     OH2      OT      -0.834000       15.9994           0
     24930 TIP3     2532     TIP3     H1       HT       0.417000       1.00800           0
     24931 TIP3     2532     TIP3     H2       HT       0.417000       1.00800           0
     24932 TIP3     2533     TIP3     OH2      OT      -0.834000       15.9994           0
     24933 TIP3     2533     TIP3     H1       HT       0.417000       1.00800           0
     24934 TIP3     2533     TIP3     H2       HT       0.417000       1.00800           0
     24935 TIP3     2534     TIP3     OH2      OT      -0.834000       15.9994           0
     24936 TIP3     2534     TIP3     H1       HT       0.417000       1.00800           0
     24937 TIP3     2534     TIP3     H2       HT       0.417000       1.00800           0
     24938 TIP3     2535     TIP3     OH2      OT      -0.834000       15.9994           0
     24939 TIP3     2535     TIP3     H1       HT       0.417000       1.00800           0
     24940 TIP3     2535     TIP3     H2       HT       0.417000       1.00800           0
     24941 TIP3     2536     TIP3     OH2      OT      -0.834000       15.9994           0
     24942 TIP3     2536     TIP3     H1       HT       0.417000       1.00800           0
     24943 TIP3     2536     TIP3     H2       HT       0.417000       1.00800           0
     24944 TIP3     2537     TIP3     OH2      OT      -0.834000       15.9994           0
     24945 TIP3     2537     TIP3     H1       HT       0.417000       1.00800           0
     24946 TIP3     2537     TIP3     H2       HT       0.417000       1.00800           0
     24947 TIP3     2538     TIP3     OH2      OT      -0.834000       15.9994           0
     24948 TIP3     2538     TIP3     H1       HT       0.417000       1.00800           0
     24949 TIP3     2538     TIP3     H2       HT       0.417000       1.00800           0
     24950 TIP3     2539     TIP3     OH2      OT      -0.834000       15.9994           0
     24951 TIP3     2539     TIP3     H1       HT       0.417000       1.00800           0
     24952 TIP3     2539     TIP3     H2       HT       0.417000       1.00800           0
     24953 TIP3     2540     TIP3     OH2      OT      -0.834000       15.9994           0
     24954 TIP3     2540     TIP3     H1       HT       0.417000       1.00800           0
     24955 TIP3     2540     TIP3     H2       HT       0.417000       1.00800           0
     24956 TIP3     2541     TIP3     OH2      OT      -0.834000       15.9994           0
     24957 TIP3     2541     TIP3     H1       HT       0.417000       1.00800           0
     24958 TIP3     2541     TIP3     H2       HT       0.417000       1.00800           0
     24959 TIP3     2542     TIP3     OH2      OT      -0.834000       15.9994           0
     24960 TIP3     2542     TIP3     H1       HT       0.417000       1.00800           0
     24961 TIP3     2542     TIP3     H2       HT       0.417000       1.00800           0
     24962 TIP3     2543     TIP3     OH2      OT      -0.834000       15.9994           0
     24963 TIP3     2543     TIP3     H1       HT       0.417000       1.00800           0
     24964 TIP3     2543     TIP3     H2       HT       0.417000       1.00800           0
     24965 TIP3     2544     TIP3     OH2      OT      -0.834000       15.9994           0
     24966 TIP3     2544     TIP3     H1       HT       0.417000       1.00800           0
     24967 TIP3     2544     TIP3     H2       HT       0.417000       1.00800           0
     24968 TIP3     2545     TIP3     OH2      OT      -0.834000       15.9994           0
     24969 TIP3     2545     TIP3     H1       HT       0.417000       1.00800           0
     24970 TIP3     2545     TIP3     H2       HT       0.417000       1.00800           0
     24971 TIP3     2546     TIP3     OH2      OT      -0.834000       15.9994           0
     24972 TIP3     2546     TIP3     H1       HT       0.417000       1.00800           0
     24973 TIP3     2546     TIP3     H2       HT       0.417000       1.00800           0
     24974 TIP3     2547     TIP3     OH2      OT      -0.834000       15.9994           0
     24975 TIP3     2547     TIP3     H1       HT       0.417000       1.00800           0
     24976 TIP3     2547     TIP3     H2       HT       0.417000       1.00800           0
     24977 TIP3     2548     TIP3     OH2      OT      -0.834000       15.9994           0
     24978 TIP3     2548     TIP3     H1       HT       0.417000       1.00800           0
     24979 TIP3     2548     TIP3     H2       HT       0.417000       1.00800           0
     24980 TIP3     2549     TIP3     OH2      OT      -0.834000       15.9994           0
     24981 TIP3     2549     TIP3     H1       HT       0.417000       1.00800           0
     24982 TIP3     2549     TIP3     H2       HT       0.417000       1.00800           0
     24983 TIP3     2550     TIP3     OH2      OT      -0.834000       15.9994           0
     24984 TIP3     2550     TIP3     H1       HT       0.417000       1.00800           0
     24985 TIP3     2550     TIP3     H2       HT       0.417000       1.00800           0
     24986 TIP3     2551     TIP3     OH2      OT      -0.834000       15.9994           0
     24987 TIP3     2551     TIP3     H1       HT       0.417000       1.00800           0
     24988 TIP3     2551     TIP3     H2       HT       0.417000       1.00800           0
     24989 TIP3     2552     TIP3     OH2      OT      -0.834000       15.9994           0
     24990 TIP3     2552     TIP3     H1       HT       0.417000       1.00800           0
     24991 TIP3     2552     TIP3     H2       HT       0.417000       1.00800           0
     24992 TIP3     2553     TIP3     OH2      OT      -0.834000       15.9994           0
     24993 TIP3     2553     TIP3     H1       HT       0.417000       1.00800           0
     24994 TIP3     2553     TIP3     H2       HT       0.417000       1.00800           0
     24995 TIP3     2554     TIP3     OH2      OT      -0.834000       15.9994           0
     24996 TIP3     2554     TIP3     H1       HT       0.417000       1.00800           0
     24997 TIP3     2554     TIP3     H2       HT       0.417000       1.00800           0
     24998 TIP3     2555     TIP3     OH2      OT      -0.834000       15.9994           0
     24999 TIP3     2555     TIP3     H1       HT       0.417000       1.00800           0
     25000 TIP3     2555     TIP3     H2       HT       0.417000       1.00800           0
     25001 TIP3     2556     TIP3     OH2      OT      -0.834000       15.9994           0
     25002 TIP3     2556     TIP3     H1       HT       0.417000       1.00800           0
     25003 TIP3     2556     TIP3     H2       HT       0.417000       1.00800           0
     25004 TIP3     2557     TIP3     OH2      OT      -0.834000       15.9994           0
     25005 TIP3     2557     TIP3     H1       HT       0.417000       1.00800           0
     25006 TIP3     2557     TIP3     H2       HT       0.417000       1.00800           0
     25007 TIP3     2558     TIP3     OH2      OT      -0.834000       15.9994           0
     25008 TIP3     2558     TIP3     H1       HT       0.417000       1.00800           0
     25009 TIP3     2558     TIP3     H2       HT       0.417000       1.00800           0
     25010 TIP3     2559     TIP3     OH2      OT      -0.834000       15.9994           0
     25011 TIP3     2559     TIP3     H1       HT       0.417000       1.00800           0
     25012 TIP3     2559     TIP3     H2       HT       0.417000       1.00800           0
     25013 TIP3     2560     TIP3     OH2      OT      -0.834000       15.9994           0
     25014 TIP3     2560     TIP3     H1       HT       0.417000       1.00800           0
     25015 TIP3     2560     TIP3     H2       HT       0.417000       1.00800           0
     25016 TIP3     2561     TIP3     OH2      OT      -0.834000       15.9994           0
     25017 TIP3     2561     TIP3     H1       HT       0.417000       1.00800           0
     25018 TIP3     2561     TIP3     H2       HT       0.417000       1.00800           0
     25019 TIP3     2562     TIP3     OH2      OT      -0.834000       15.9994           0
     25020 TIP3     2562     TIP3     H1       HT       0.417000       1.00800           0
     25021 TIP3     2562     TIP3     H2       HT       0.417000       1.00800           0
     25022 TIP3     2563     TIP3     OH2      OT      -0.834000       15.9994           0
     25023 TIP3     2563     TIP3     H1       HT       0.417000       1.00800           0
     25024 TIP3     2563     TIP3     H2       HT       0.417000       1.00800           0
     25025 TIP3     2564     TIP3     OH2      OT      -0.834000       15.9994           0
     25026 TIP3     2564     TIP3     H1       HT       0.417000       1.00800           0
     25027 TIP3     2564     TIP3     H2       HT       0.417000       1.00800           0
     25028 TIP3     2565     TIP3     OH2      OT      -0.834000       15.9994           0
     25029 TIP3     2565     TIP3     H1       HT       0.417000       1.00800           0
     25030 TIP3     2565     TIP3     H2       HT       0.417000       1.00800           0
     25031 TIP3     2566     TIP3     OH2      OT      -0.834000       15.9994           0
     25032 TIP3     2566     TIP3     H1       HT       0.417000       1.00800           0
     25033 TIP3     2566     TIP3     H2       HT       0.417000       1.00800           0
     25034 TIP3     2567     TIP3     OH2      OT      -0.834000       15.9994           0
     25035 TIP3     2567     TIP3     H1       HT       0.417000       1.00800           0
     25036 TIP3     2567     TIP3     H2       HT       0.417000       1.00800           0
     25037 TIP3     2568     TIP3     OH2      OT      -0.834000       15.9994           0
     25038 TIP3     2568     TIP3     H1       HT       0.417000       1.00800           0
     25039 TIP3     2568     TIP3     H2       HT       0.417000       1.00800           0
     25040 TIP3     2569     TIP3     OH2      OT      -0.834000       15.9994           0
     25041 TIP3     2569     TIP3     H1       HT       0.417000       1.00800           0
     25042 TIP3     2569     TIP3     H2       HT       0.417000       1.00800           0
     25043 TIP3     2570     TIP3     OH2      OT      -0.834000       15.9994           0
     25044 TIP3     2570     TIP3     H1       HT       0.417000       1.00800           0
     25045 TIP3     2570     TIP3     H2       HT       0.417000       1.00800           0
     25046 TIP3     2571     TIP3     OH2      OT      -0.834000       15.9994           0
     25047 TIP3     2571     TIP3     H1       HT       0.417000       1.00800           0
     25048 TIP3     2571     TIP3     H2       HT       0.417000       1.00800           0
     25049 TIP3     2572     TIP3     OH2      OT      -0.834000       15.9994           0
     25050 TIP3     2572     TIP3     H1       HT       0.417000       1.00800           0
     25051 TIP3     2572     TIP3     H2       HT       0.417000       1.00800           0
     25052 TIP3     2573     TIP3     OH2      OT      -0.834000       15.9994           0
     25053 TIP3     2573     TIP3     H1       HT       0.417000       1.00800           0
     25054 TIP3     2573     TIP3     H2       HT       0.417000       1.00800           0
     25055 TIP3     2574     TIP3     OH2      OT      -0.834000       15.9994           0
     25056 TIP3     2574     TIP3     H1       HT       0.417000       1.00800           0
     25057 TIP3     2574     TIP3     H2       HT       0.417000       1.00800           0
     25058 TIP3     2575     TIP3     OH2      OT      -0.834000       15.9994           0
     25059 TIP3     2575     TIP3     H1       HT       0.417000       1.00800           0
     25060 TIP3     2575     TIP3     H2       HT       0.417000       1.00800           0
     25061 TIP3     2576     TIP3     OH2      OT      -0.834000       15.9994           0
     25062 TIP3     2576     TIP3     H1       HT       0.417000       1.00800           0
     25063 TIP3     2576     TIP3     H2       HT       0.417000       1.00800           0
     25064 TIP3     2577     TIP3     OH2      OT      -0.834000       15.9994           0
     25065 TIP3     2577     TIP3     H1       HT       0.417000       1.00800           0
     25066 TIP3     2577     TIP3     H2       HT       0.417000       1.00800           0
     25067 TIP3     2578     TIP3     OH2      OT      -0.834000       15.9994           0
     25068 TIP3     2578     TIP3     H1       HT       0.417000       1.00800           0
     25069 TIP3     2578     TIP3     H2       HT       0.417000       1.00800           0
     25070 TIP3     2579     TIP3     OH2      OT      -0.834000       15.9994           0
     25071 TIP3     2579     TIP3     H1       HT       0.417000       1.00800           0
     25072 TIP3     2579     TIP3     H2       HT       0.417000       1.00800           0
     25073 TIP3     2580     TIP3     OH2      OT      -0.834000       15.9994           0
     25074 TIP3     2580     TIP3     H1       HT       0.417000       1.00800           0
     25075 TIP3     2580     TIP3     H2       HT       0.417000       1.00800           0
     25076 TIP3     2581     TIP3     OH2      OT      -0.834000       15.9994           0
     25077 TIP3     2581     TIP3     H1       HT       0.417000       1.00800           0
     25078 TIP3     2581     TIP3     H2       HT       0.417000       1.00800           0
     25079 TIP3     2582     TIP3     OH2      OT      -0.834000       15.9994           0
     25080 TIP3     2582     TIP3     H1       HT       0.417000       1.00800           0
     25081 TIP3     2582     TIP3     H2       HT       0.417000       1.00800           0
     25082 TIP3     2583     TIP3     OH2      OT      -0.834000       15.9994           0
     25083 TIP3     2583     TIP3     H1       HT       0.417000       1.00800           0
     25084 TIP3     2583     TIP3     H2       HT       0.417000       1.00800           0
     25085 TIP3     2584     TIP3     OH2      OT      -0.834000       15.9994           0
     25086 TIP3     2584     TIP3     H1       HT       0.417000       1.00800           0
     25087 TIP3     2584     TIP3     H2       HT       0.417000       1.00800           0
     25088 TIP3     2585     TIP3     OH2      OT      -0.834000       15.9994           0
     25089 TIP3     2585     TIP3     H1       HT       0.417000       1.00800           0
     25090 TIP3     2585     TIP3     H2       HT       0.417000       1.00800           0
     25091 TIP3     2586     TIP3     OH2      OT      -0.834000       15.9994           0
     25092 TIP3     2586     TIP3     H1       HT       0.417000       1.00800           0
     25093 TIP3     2586     TIP3     H2       HT       0.417000       1.00800           0
     25094 TIP3     2587     TIP3     OH2      OT      -0.834000       15.9994           0
     25095 TIP3     2587     TIP3     H1       HT       0.417000       1.00800           0
     25096 TIP3     2587     TIP3     H2       HT       0.417000       1.00800           0
     25097 TIP3     2588     TIP3     OH2      OT      -0.834000       15.9994           0
     25098 TIP3     2588     TIP3     H1       HT       0.417000       1.00800           0
     25099 TIP3     2588     TIP3     H2       HT       0.417000       1.00800           0
     25100 TIP3     2589     TIP3     OH2      OT      -0.834000       15.9994           0
     25101 TIP3     2589     TIP3     H1       HT       0.417000       1.00800           0
     25102 TIP3     2589     TIP3     H2       HT       0.417000       1.00800           0
     25103 TIP3     2590     TIP3     OH2      OT      -0.834000       15.9994           0
     25104 TIP3     2590     TIP3     H1       HT       0.417000       1.00800           0
     25105 TIP3     2590     TIP3     H2       HT       0.417000       1.00800           0
     25106 TIP3     2591     TIP3     OH2      OT      -0.834000       15.9994           0
     25107 TIP3     2591     TIP3     H1       HT       0.417000       1.00800           0
     25108 TIP3     2591     TIP3     H2       HT       0.417000       1.00800           0
     25109 TIP3     2592     TIP3     OH2      OT      -0.834000       15.9994           0
     25110 TIP3     2592     TIP3     H1       HT       0.417000       1.00800           0
     25111 TIP3     2592     TIP3     H2       HT       0.417000       1.00800           0
     25112 TIP3     2593     TIP3     OH2      OT      -0.834000       15.9994           0
     25113 TIP3     2593     TIP3     H1       HT       0.417000       1.00800           0
     25114 TIP3     2593     TIP3     H2       HT       0.417000       1.00800           0
     25115 TIP3     2594     TIP3     OH2      OT      -0.834000       15.9994           0
     25116 TIP3     2594     TIP3     H1       HT       0.417000       1.00800           0
     25117 TIP3     2594     TIP3     H2       HT       0.417000       1.00800           0
     25118 TIP3     2595     TIP3     OH2      OT      -0.834000       15.9994           0
     25119 TIP3     2595     TIP3     H1       HT       0.417000       1.00800           0
     25120 TIP3     2595     TIP3     H2       HT       0.417000       1.00800           0
     25121 TIP3     2596     TIP3     OH2      OT      -0.834000       15.9994           0
     25122 TIP3     2596     TIP3     H1       HT       0.417000       1.00800           0
     25123 TIP3     2596     TIP3     H2       HT       0.417000       1.00800           0
     25124 TIP3     2597     TIP3     OH2      OT      -0.834000       15.9994           0
     25125 TIP3     2597     TIP3     H1       HT       0.417000       1.00800           0
     25126 TIP3     2597     TIP3     H2       HT       0.417000       1.00800           0
     25127 TIP3     2598     TIP3     OH2      OT      -0.834000       15.9994           0
     25128 TIP3     2598     TIP3     H1       HT       0.417000       1.00800           0
     25129 TIP3     2598     TIP3     H2       HT       0.417000       1.00800           0
     25130 TIP3     2599     TIP3     OH2      OT      -0.834000       15.9994           0
     25131 TIP3     2599     TIP3     H1       HT       0.417000       1.00800           0
     25132 TIP3     2599     TIP3     H2       HT       0.417000       1.00800           0
     25133 TIP3     2600     TIP3     OH2      OT      -0.834000       15.9994           0
     25134 TIP3     2600     TIP3     H1       HT       0.417000       1.00800           0
     25135 TIP3     2600     TIP3     H2       HT       0.417000       1.00800           0
     25136 TIP3     2601     TIP3     OH2      OT      -0.834000       15.9994           0
     25137 TIP3     2601     TIP3     H1       HT       0.417000       1.00800           0
     25138 TIP3     2601     TIP3     H2       HT       0.417000       1.00800           0
     25139 TIP3     2602     TIP3     OH2      OT      -0.834000       15.9994           0
     25140 TIP3     2602     TIP3     H1       HT       0.417000       1.00800           0
     25141 TIP3     2602     TIP3     H2       HT       0.417000       1.00800           0
     25142 TIP3     2603     TIP3     OH2      OT      -0.834000       15.9994           0
     25143 TIP3     2603     TIP3     H1       HT       0.417000       1.00800           0
     25144 TIP3     2603     TIP3     H2       HT       0.417000       1.00800           0
     25145 TIP3     2604     TIP3     OH2      OT      -0.834000       15.9994           0
     25146 TIP3     2604     TIP3     H1       HT       0.417000       1.00800           0
     25147 TIP3     2604     TIP3     H2       HT       0.417000       1.00800           0
     25148 TIP3     2605     TIP3     OH2      OT      -0.834000       15.9994           0
     25149 TIP3     2605     TIP3     H1       HT       0.417000       1.00800           0
     25150 TIP3     2605     TIP3     H2       HT       0.417000       1.00800           0
     25151 TIP3     2606     TIP3     OH2      OT      -0.834000       15.9994           0
     25152 TIP3     2606     TIP3     H1       HT       0.417000       1.00800           0
     25153 TIP3     2606     TIP3     H2       HT       0.417000       1.00800           0
     25154 TIP3     2607     TIP3     OH2      OT      -0.834000       15.9994           0
     25155 TIP3     2607     TIP3     H1       HT       0.417000       1.00800           0
     25156 TIP3     2607     TIP3     H2       HT       0.417000       1.00800           0
     25157 TIP3     2608     TIP3     OH2      OT      -0.834000       15.9994           0
     25158 TIP3     2608     TIP3     H1       HT       0.417000       1.00800           0
     25159 TIP3     2608     TIP3     H2       HT       0.417000       1.00800           0
     25160 TIP3     2609     TIP3     OH2      OT      -0.834000       15.9994           0
     25161 TIP3     2609     TIP3     H1       HT       0.417000       1.00800           0
     25162 TIP3     2609     TIP3     H2       HT       0.417000       1.00800           0
     25163 TIP3     2610     TIP3     OH2      OT      -0.834000       15.9994           0
     25164 TIP3     2610     TIP3     H1       HT       0.417000       1.00800           0
     25165 TIP3     2610     TIP3     H2       HT       0.417000       1.00800           0
     25166 TIP3     2611     TIP3     OH2      OT      -0.834000       15.9994           0
     25167 TIP3     2611     TIP3     H1       HT       0.417000       1.00800           0
     25168 TIP3     2611     TIP3     H2       HT       0.417000       1.00800           0
     25169 TIP3     2612     TIP3     OH2      OT      -0.834000       15.9994           0
     25170 TIP3     2612     TIP3     H1       HT       0.417000       1.00800           0
     25171 TIP3     2612     TIP3     H2       HT       0.417000       1.00800           0
     25172 TIP3     2613     TIP3     OH2      OT      -0.834000       15.9994           0
     25173 TIP3     2613     TIP3     H1       HT       0.417000       1.00800           0
     25174 TIP3     2613     TIP3     H2       HT       0.417000       1.00800           0
     25175 TIP3     2614     TIP3     OH2      OT      -0.834000       15.9994           0
     25176 TIP3     2614     TIP3     H1       HT       0.417000       1.00800           0
     25177 TIP3     2614     TIP3     H2       HT       0.417000       1.00800           0
     25178 TIP3     2615     TIP3     OH2      OT      -0.834000       15.9994           0
     25179 TIP3     2615     TIP3     H1       HT       0.417000       1.00800           0
     25180 TIP3     2615     TIP3     H2       HT       0.417000       1.00800           0
     25181 TIP3     2616     TIP3     OH2      OT      -0.834000       15.9994           0
     25182 TIP3     2616     TIP3     H1       HT       0.417000       1.00800           0
     25183 TIP3     2616     TIP3     H2       HT       0.417000       1.00800           0
     25184 TIP3     2617     TIP3     OH2      OT      -0.834000       15.9994           0
     25185 TIP3     2617     TIP3     H1       HT       0.417000       1.00800           0
     25186 TIP3     2617     TIP3     H2       HT       0.417000       1.00800           0
     25187 TIP3     2618     TIP3     OH2      OT      -0.834000       15.9994           0
     25188 TIP3     2618     TIP3     H1       HT       0.417000       1.00800           0
     25189 TIP3     2618     TIP3     H2       HT       0.417000       1.00800           0
     25190 TIP3     2619     TIP3     OH2      OT      -0.834000       15.9994           0
     25191 TIP3     2619     TIP3     H1       HT       0.417000       1.00800           0
     25192 TIP3     2619     TIP3     H2       HT       0.417000       1.00800           0
     25193 TIP3     2620     TIP3     OH2      OT      -0.834000       15.9994           0
     25194 TIP3     2620     TIP3     H1       HT       0.417000       1.00800           0
     25195 TIP3     2620     TIP3     H2       HT       0.417000       1.00800           0
     25196 TIP3     2621     TIP3     OH2      OT      -0.834000       15.9994           0
     25197 TIP3     2621     TIP3     H1       HT       0.417000       1.00800           0
     25198 TIP3     2621     TIP3     H2       HT       0.417000       1.00800           0
     25199 TIP3     2622     TIP3     OH2      OT      -0.834000       15.9994           0
     25200 TIP3     2622     TIP3     H1       HT       0.417000       1.00800           0
     25201 TIP3     2622     TIP3     H2       HT       0.417000       1.00800           0
     25202 TIP3     2623     TIP3     OH2      OT      -0.834000       15.9994           0
     25203 TIP3     2623     TIP3     H1       HT       0.417000       1.00800           0
     25204 TIP3     2623     TIP3     H2       HT       0.417000       1.00800           0
     25205 TIP3     2624     TIP3     OH2      OT      -0.834000       15.9994           0
     25206 TIP3     2624     TIP3     H1       HT       0.417000       1.00800           0
     25207 TIP3     2624     TIP3     H2       HT       0.417000       1.00800           0
     25208 TIP3     2625     TIP3     OH2      OT      -0.834000       15.9994           0
     25209 TIP3     2625     TIP3     H1       HT       0.417000       1.00800           0
     25210 TIP3     2625     TIP3     H2       HT       0.417000       1.00800           0
     25211 TIP3     2626     TIP3     OH2      OT      -0.834000       15.9994           0
     25212 TIP3     2626     TIP3     H1       HT       0.417000       1.00800           0
     25213 TIP3     2626     TIP3     H2       HT       0.417000       1.00800           0
     25214 TIP3     2627     TIP3     OH2      OT      -0.834000       15.9994           0
     25215 TIP3     2627     TIP3     H1       HT       0.417000       1.00800           0
     25216 TIP3     2627     TIP3     H2       HT       0.417000       1.00800           0
     25217 TIP3     2628     TIP3     OH2      OT      -0.834000       15.9994           0
     25218 TIP3     2628     TIP3     H1       HT       0.417000       1.00800           0
     25219 TIP3     2628     TIP3     H2       HT       0.417000       1.00800           0
     25220 TIP3     2629     TIP3     OH2      OT      -0.834000       15.9994           0
     25221 TIP3     2629     TIP3     H1       HT       0.417000       1.00800           0
     25222 TIP3     2629     TIP3     H2       HT       0.417000       1.00800           0
     25223 TIP3     2630     TIP3     OH2      OT      -0.834000       15.9994           0
     25224 TIP3     2630     TIP3     H1       HT       0.417000       1.00800           0
     25225 TIP3     2630     TIP3     H2       HT       0.417000       1.00800           0
     25226 TIP3     2631     TIP3     OH2      OT      -0.834000       15.9994           0
     25227 TIP3     2631     TIP3     H1       HT       0.417000       1.00800           0
     25228 TIP3     2631     TIP3     H2       HT       0.417000       1.00800           0
     25229 TIP3     2632     TIP3     OH2      OT      -0.834000       15.9994           0
     25230 TIP3     2632     TIP3     H1       HT       0.417000       1.00800           0
     25231 TIP3     2632     TIP3     H2       HT       0.417000       1.00800           0
     25232 TIP3     2633     TIP3     OH2      OT      -0.834000       15.9994           0
     25233 TIP3     2633     TIP3     H1       HT       0.417000       1.00800           0
     25234 TIP3     2633     TIP3     H2       HT       0.417000       1.00800           0
     25235 TIP3     2634     TIP3     OH2      OT      -0.834000       15.9994           0
     25236 TIP3     2634     TIP3     H1       HT       0.417000       1.00800           0
     25237 TIP3     2634     TIP3     H2       HT       0.417000       1.00800           0
     25238 TIP3     2635     TIP3     OH2      OT      -0.834000       15.9994           0
     25239 TIP3     2635     TIP3     H1       HT       0.417000       1.00800           0
     25240 TIP3     2635     TIP3     H2       HT       0.417000       1.00800           0
     25241 TIP3     2636     TIP3     OH2      OT      -0.834000       15.9994           0
     25242 TIP3     2636     TIP3     H1       HT       0.417000       1.00800           0
     25243 TIP3     2636     TIP3     H2       HT       0.417000       1.00800           0
     25244 TIP3     2637     TIP3     OH2      OT      -0.834000       15.9994           0
     25245 TIP3     2637     TIP3     H1       HT       0.417000       1.00800           0
     25246 TIP3     2637     TIP3     H2       HT       0.417000       1.00800           0
     25247 TIP3     2638     TIP3     OH2      OT      -0.834000       15.9994           0
     25248 TIP3     2638     TIP3     H1       HT       0.417000       1.00800           0
     25249 TIP3     2638     TIP3     H2       HT       0.417000       1.00800           0
     25250 TIP3     2639     TIP3     OH2      OT      -0.834000       15.9994           0
     25251 TIP3     2639     TIP3     H1       HT       0.417000       1.00800           0
     25252 TIP3     2639     TIP3     H2       HT       0.417000       1.00800           0
     25253 TIP3     2640     TIP3     OH2      OT      -0.834000       15.9994           0
     25254 TIP3     2640     TIP3     H1       HT       0.417000       1.00800           0
     25255 TIP3     2640     TIP3     H2       HT       0.417000       1.00800           0
     25256 TIP3     2641     TIP3     OH2      OT      -0.834000       15.9994           0
     25257 TIP3     2641     TIP3     H1       HT       0.417000       1.00800           0
     25258 TIP3     2641     TIP3     H2       HT       0.417000       1.00800           0
     25259 TIP3     2642     TIP3     OH2      OT      -0.834000       15.9994           0
     25260 TIP3     2642     TIP3     H1       HT       0.417000       1.00800           0
     25261 TIP3     2642     TIP3     H2       HT       0.417000       1.00800           0
     25262 TIP3     2643     TIP3     OH2      OT      -0.834000       15.9994           0
     25263 TIP3     2643     TIP3     H1       HT       0.417000       1.00800           0
     25264 TIP3     2643     TIP3     H2       HT       0.417000       1.00800           0
     25265 TIP3     2644     TIP3     OH2      OT      -0.834000       15.9994           0
     25266 TIP3     2644     TIP3     H1       HT       0.417000       1.00800           0
     25267 TIP3     2644     TIP3     H2       HT       0.417000       1.00800           0
     25268 TIP3     2645     TIP3     OH2      OT      -0.834000       15.9994           0
     25269 TIP3     2645     TIP3     H1       HT       0.417000       1.00800           0
     25270 TIP3     2645     TIP3     H2       HT       0.417000       1.00800           0
     25271 TIP3     2646     TIP3     OH2      OT      -0.834000       15.9994           0
     25272 TIP3     2646     TIP3     H1       HT       0.417000       1.00800           0
     25273 TIP3     2646     TIP3     H2       HT       0.417000       1.00800           0
     25274 TIP3     2647     TIP3     OH2      OT      -0.834000       15.9994           0
     25275 TIP3     2647     TIP3     H1       HT       0.417000       1.00800           0
     25276 TIP3     2647     TIP3     H2       HT       0.417000       1.00800           0
     25277 TIP3     2648     TIP3     OH2      OT      -0.834000       15.9994           0
     25278 TIP3     2648     TIP3     H1       HT       0.417000       1.00800           0
     25279 TIP3     2648     TIP3     H2       HT       0.417000       1.00800           0
     25280 TIP3     2649     TIP3     OH2      OT      -0.834000       15.9994           0
     25281 TIP3     2649     TIP3     H1       HT       0.417000       1.00800           0
     25282 TIP3     2649     TIP3     H2       HT       0.417000       1.00800           0
     25283 TIP3     2650     TIP3     OH2      OT      -0.834000       15.9994           0
     25284 TIP3     2650     TIP3     H1       HT       0.417000       1.00800           0
     25285 TIP3     2650     TIP3     H2       HT       0.417000       1.00800           0
     25286 TIP3     2651     TIP3     OH2      OT      -0.834000       15.9994           0
     25287 TIP3     2651     TIP3     H1       HT       0.417000       1.00800           0
     25288 TIP3     2651     TIP3     H2       HT       0.417000       1.00800           0
     25289 TIP3     2652     TIP3     OH2      OT      -0.834000       15.9994           0
     25290 TIP3     2652     TIP3     H1       HT       0.417000       1.00800           0
     25291 TIP3     2652     TIP3     H2       HT       0.417000       1.00800           0
     25292 TIP3     2653     TIP3     OH2      OT      -0.834000       15.9994           0
     25293 TIP3     2653     TIP3     H1       HT       0.417000       1.00800           0
     25294 TIP3     2653     TIP3     H2       HT       0.417000       1.00800           0
     25295 TIP3     2654     TIP3     OH2      OT      -0.834000       15.9994           0
     25296 TIP3     2654     TIP3     H1       HT       0.417000       1.00800           0
     25297 TIP3     2654     TIP3     H2       HT       0.417000       1.00800           0
     25298 TIP3     2655     TIP3     OH2      OT      -0.834000       15.9994           0
     25299 TIP3     2655     TIP3     H1       HT       0.417000       1.00800           0
     25300 TIP3     2655     TIP3     H2       HT       0.417000       1.00800           0
     25301 TIP3     2656     TIP3     OH2      OT      -0.834000       15.9994           0
     25302 TIP3     2656     TIP3     H1       HT       0.417000       1.00800           0
     25303 TIP3     2656     TIP3     H2       HT       0.417000       1.00800           0
     25304 TIP3     2657     TIP3     OH2      OT      -0.834000       15.9994           0
     25305 TIP3     2657     TIP3     H1       HT       0.417000       1.00800           0
     25306 TIP3     2657     TIP3     H2       HT       0.417000       1.00800           0
     25307 TIP3     2658     TIP3     OH2      OT      -0.834000       15.9994           0
     25308 TIP3     2658     TIP3     H1       HT       0.417000       1.00800           0
     25309 TIP3     2658     TIP3     H2       HT       0.417000       1.00800           0
     25310 TIP3     2659     TIP3     OH2      OT      -0.834000       15.9994           0
     25311 TIP3     2659     TIP3     H1       HT       0.417000       1.00800           0
     25312 TIP3     2659     TIP3     H2       HT       0.417000       1.00800           0
     25313 TIP3     2660     TIP3     OH2      OT      -0.834000       15.9994           0
     25314 TIP3     2660     TIP3     H1       HT       0.417000       1.00800           0
     25315 TIP3     2660     TIP3     H2       HT       0.417000       1.00800           0
     25316 TIP3     2661     TIP3     OH2      OT      -0.834000       15.9994           0
     25317 TIP3     2661     TIP3     H1       HT       0.417000       1.00800           0
     25318 TIP3     2661     TIP3     H2       HT       0.417000       1.00800           0
     25319 TIP3     2662     TIP3     OH2      OT      -0.834000       15.9994           0
     25320 TIP3     2662     TIP3     H1       HT       0.417000       1.00800           0
     25321 TIP3     2662     TIP3     H2       HT       0.417000       1.00800           0
     25322 TIP3     2663     TIP3     OH2      OT      -0.834000       15.9994           0
     25323 TIP3     2663     TIP3     H1       HT       0.417000       1.00800           0
     25324 TIP3     2663     TIP3     H2       HT       0.417000       1.00800           0
     25325 TIP3     2664     TIP3     OH2      OT      -0.834000       15.9994           0
     25326 TIP3     2664     TIP3     H1       HT       0.417000       1.00800           0
     25327 TIP3     2664     TIP3     H2       HT       0.417000       1.00800           0
     25328 TIP3     2665     TIP3     OH2      OT      -0.834000       15.9994           0
     25329 TIP3     2665     TIP3     H1       HT       0.417000       1.00800           0
     25330 TIP3     2665     TIP3     H2       HT       0.417000       1.00800           0
     25331 TIP3     2666     TIP3     OH2      OT      -0.834000       15.9994           0
     25332 TIP3     2666     TIP3     H1       HT       0.417000       1.00800           0
     25333 TIP3     2666     TIP3     H2       HT       0.417000       1.00800           0
     25334 TIP3     2667     TIP3     OH2      OT      -0.834000       15.9994           0
     25335 TIP3     2667     TIP3     H1       HT       0.417000       1.00800           0
     25336 TIP3     2667     TIP3     H2       HT       0.417000       1.00800           0
     25337 TIP3     2668     TIP3     OH2      OT      -0.834000       15.9994           0
     25338 TIP3     2668     TIP3     H1       HT       0.417000       1.00800           0
     25339 TIP3     2668     TIP3     H2       HT       0.417000       1.00800           0
     25340 TIP3     2669     TIP3     OH2      OT      -0.834000       15.9994           0
     25341 TIP3     2669     TIP3     H1       HT       0.417000       1.00800           0
     25342 TIP3     2669     TIP3     H2       HT       0.417000       1.00800           0
     25343 TIP3     2670     TIP3     OH2      OT      -0.834000       15.9994           0
     25344 TIP3     2670     TIP3     H1       HT       0.417000       1.00800           0
     25345 TIP3     2670     TIP3     H2       HT       0.417000       1.00800           0
     25346 TIP3     2671     TIP3     OH2      OT      -0.834000       15.9994           0
     25347 TIP3     2671     TIP3     H1       HT       0.417000       1.00800           0
     25348 TIP3     2671     TIP3     H2       HT       0.417000       1.00800           0
     25349 TIP3     2672     TIP3     OH2      OT      -0.834000       15.9994           0
     25350 TIP3     2672     TIP3     H1       HT       0.417000       1.00800           0
     25351 TIP3     2672     TIP3     H2       HT       0.417000       1.00800           0
     25352 TIP3     2673     TIP3     OH2      OT      -0.834000       15.9994           0
     25353 TIP3     2673     TIP3     H1       HT       0.417000       1.00800           0
     25354 TIP3     2673     TIP3     H2       HT       0.417000       1.00800           0
     25355 TIP3     2674     TIP3     OH2      OT      -0.834000       15.9994           0
     25356 TIP3     2674     TIP3     H1       HT       0.417000       1.00800           0
     25357 TIP3     2674     TIP3     H2       HT       0.417000       1.00800           0
     25358 TIP3     2675     TIP3     OH2      OT      -0.834000       15.9994           0
     25359 TIP3     2675     TIP3     H1       HT       0.417000       1.00800           0
     25360 TIP3     2675     TIP3     H2       HT       0.417000       1.00800           0
     25361 TIP3     2676     TIP3     OH2      OT      -0.834000       15.9994           0
     25362 TIP3     2676     TIP3     H1       HT       0.417000       1.00800           0
     25363 TIP3     2676     TIP3     H2       HT       0.417000       1.00800           0
     25364 TIP3     2677     TIP3     OH2      OT      -0.834000       15.9994           0
     25365 TIP3     2677     TIP3     H1       HT       0.417000       1.00800           0
     25366 TIP3     2677     TIP3     H2       HT       0.417000       1.00800           0
     25367 TIP3     2678     TIP3     OH2      OT      -0.834000       15.9994           0
     25368 TIP3     2678     TIP3     H1       HT       0.417000       1.00800           0
     25369 TIP3     2678     TIP3     H2       HT       0.417000       1.00800           0
     25370 TIP3     2679     TIP3     OH2      OT      -0.834000       15.9994           0
     25371 TIP3     2679     TIP3     H1       HT       0.417000       1.00800           0
     25372 TIP3     2679     TIP3     H2       HT       0.417000       1.00800           0
     25373 TIP3     2680     TIP3     OH2      OT      -0.834000       15.9994           0
     25374 TIP3     2680     TIP3     H1       HT       0.417000       1.00800           0
     25375 TIP3     2680     TIP3     H2       HT       0.417000       1.00800           0
     25376 TIP3     2681     TIP3     OH2      OT      -0.834000       15.9994           0
     25377 TIP3     2681     TIP3     H1       HT       0.417000       1.00800           0
     25378 TIP3     2681     TIP3     H2       HT       0.417000       1.00800           0
     25379 TIP3     2682     TIP3     OH2      OT      -0.834000       15.9994           0
     25380 TIP3     2682     TIP3     H1       HT       0.417000       1.00800           0
     25381 TIP3     2682     TIP3     H2       HT       0.417000       1.00800           0
     25382 TIP3     2683     TIP3     OH2      OT      -0.834000       15.9994           0
     25383 TIP3     2683     TIP3     H1       HT       0.417000       1.00800           0
     25384 TIP3     2683     TIP3     H2       HT       0.417000       1.00800           0
     25385 TIP3     2684     TIP3     OH2      OT      -0.834000       15.9994           0
     25386 TIP3     2684     TIP3     H1       HT       0.417000       1.00800           0
     25387 TIP3     2684     TIP3     H2       HT       0.417000       1.00800           0
     25388 TIP3     2685     TIP3     OH2      OT      -0.834000       15.9994           0
     25389 TIP3     2685     TIP3     H1       HT       0.417000       1.00800           0
     25390 TIP3     2685     TIP3     H2       HT       0.417000       1.00800           0
     25391 TIP3     2686     TIP3     OH2      OT      -0.834000       15.9994           0
     25392 TIP3     2686     TIP3     H1       HT       0.417000       1.00800           0
     25393 TIP3     2686     TIP3     H2       HT       0.417000       1.00800           0
     25394 TIP3     2687     TIP3     OH2      OT      -0.834000       15.9994           0
     25395 TIP3     2687     TIP3     H1       HT       0.417000       1.00800           0
     25396 TIP3     2687     TIP3     H2       HT       0.417000       1.00800           0
     25397 TIP3     2688     TIP3     OH2      OT      -0.834000       15.9994           0
     25398 TIP3     2688     TIP3     H1       HT       0.417000       1.00800           0
     25399 TIP3     2688     TIP3     H2       HT       0.417000       1.00800           0
     25400 TIP3     2689     TIP3     OH2      OT      -0.834000       15.9994           0
     25401 TIP3     2689     TIP3     H1       HT       0.417000       1.00800           0
     25402 TIP3     2689     TIP3     H2       HT       0.417000       1.00800           0
     25403 TIP3     2690     TIP3     OH2      OT      -0.834000       15.9994           0
     25404 TIP3     2690     TIP3     H1       HT       0.417000       1.00800           0
     25405 TIP3     2690     TIP3     H2       HT       0.417000       1.00800           0
     25406 TIP3     2691     TIP3     OH2      OT      -0.834000       15.9994           0
     25407 TIP3     2691     TIP3     H1       HT       0.417000       1.00800           0
     25408 TIP3     2691     TIP3     H2       HT       0.417000       1.00800           0
     25409 TIP3     2692     TIP3     OH2      OT      -0.834000       15.9994           0
     25410 TIP3     2692     TIP3     H1       HT       0.417000       1.00800           0
     25411 TIP3     2692     TIP3     H2       HT       0.417000       1.00800           0
     25412 TIP3     2693     TIP3     OH2      OT      -0.834000       15.9994           0
     25413 TIP3     2693     TIP3     H1       HT       0.417000       1.00800           0
     25414 TIP3     2693     TIP3     H2       HT       0.417000       1.00800           0
     25415 TIP3     2694     TIP3     OH2      OT      -0.834000       15.9994           0
     25416 TIP3     2694     TIP3     H1       HT       0.417000       1.00800           0
     25417 TIP3     2694     TIP3     H2       HT       0.417000       1.00800           0
     25418 TIP3     2695     TIP3     OH2      OT      -0.834000       15.9994           0
     25419 TIP3     2695     TIP3     H1       HT       0.417000       1.00800           0
     25420 TIP3     2695     TIP3     H2       HT       0.417000       1.00800           0
     25421 TIP3     2696     TIP3     OH2      OT      -0.834000       15.9994           0
     25422 TIP3     2696     TIP3     H1       HT       0.417000       1.00800           0
     25423 TIP3     2696     TIP3     H2       HT       0.417000       1.00800           0
     25424 TIP3     2697     TIP3     OH2      OT      -0.834000       15.9994           0
     25425 TIP3     2697     TIP3     H1       HT       0.417000       1.00800           0
     25426 TIP3     2697     TIP3     H2       HT       0.417000       1.00800           0
     25427 TIP3     2698     TIP3     OH2      OT      -0.834000       15.9994           0
     25428 TIP3     2698     TIP3     H1       HT       0.417000       1.00800           0
     25429 TIP3     2698     TIP3     H2       HT       0.417000       1.00800           0
     25430 TIP3     2699     TIP3     OH2      OT      -0.834000       15.9994           0
     25431 TIP3     2699     TIP3     H1       HT       0.417000       1.00800           0
     25432 TIP3     2699     TIP3     H2       HT       0.417000       1.00800           0
     25433 TIP3     2700     TIP3     OH2      OT      -0.834000       15.9994           0
     25434 TIP3     2700     TIP3     H1       HT       0.417000       1.00800           0
     25435 TIP3     2700     TIP3     H2       HT       0.417000       1.00800           0
     25436 TIP3     2701     TIP3     OH2      OT      -0.834000       15.9994           0
     25437 TIP3     2701     TIP3     H1       HT       0.417000       1.00800           0
     25438 TIP3     2701     TIP3     H2       HT       0.417000       1.00800           0
     25439 TIP3     2702     TIP3     OH2      OT      -0.834000       15.9994           0
     25440 TIP3     2702     TIP3     H1       HT       0.417000       1.00800           0
     25441 TIP3     2702     TIP3     H2       HT       0.417000       1.00800           0
     25442 TIP3     2703     TIP3     OH2      OT      -0.834000       15.9994           0
     25443 TIP3     2703     TIP3     H1       HT       0.417000       1.00800           0
     25444 TIP3     2703     TIP3     H2       HT       0.417000       1.00800           0
     25445 TIP3     2704     TIP3     OH2      OT      -0.834000       15.9994           0
     25446 TIP3     2704     TIP3     H1       HT       0.417000       1.00800           0
     25447 TIP3     2704     TIP3     H2       HT       0.417000       1.00800           0
     25448 TIP3     2705     TIP3     OH2      OT      -0.834000       15.9994           0
     25449 TIP3     2705     TIP3     H1       HT       0.417000       1.00800           0
     25450 TIP3     2705     TIP3     H2       HT       0.417000       1.00800           0
     25451 TIP3     2706     TIP3     OH2      OT      -0.834000       15.9994           0
     25452 TIP3     2706     TIP3     H1       HT       0.417000       1.00800           0
     25453 TIP3     2706     TIP3     H2       HT       0.417000       1.00800           0
     25454 TIP3     2707     TIP3     OH2      OT      -0.834000       15.9994           0
     25455 TIP3     2707     TIP3     H1       HT       0.417000       1.00800           0
     25456 TIP3     2707     TIP3     H2       HT       0.417000       1.00800           0
     25457 TIP3     2708     TIP3     OH2      OT      -0.834000       15.9994           0
     25458 TIP3     2708     TIP3     H1       HT       0.417000       1.00800           0
     25459 TIP3     2708     TIP3     H2       HT       0.417000       1.00800           0
     25460 TIP3     2709     TIP3     OH2      OT      -0.834000       15.9994           0
     25461 TIP3     2709     TIP3     H1       HT       0.417000       1.00800           0
     25462 TIP3     2709     TIP3     H2       HT       0.417000       1.00800           0
     25463 TIP3     2710     TIP3     OH2      OT      -0.834000       15.9994           0
     25464 TIP3     2710     TIP3     H1       HT       0.417000       1.00800           0
     25465 TIP3     2710     TIP3     H2       HT       0.417000       1.00800           0
     25466 TIP3     2711     TIP3     OH2      OT      -0.834000       15.9994           0
     25467 TIP3     2711     TIP3     H1       HT       0.417000       1.00800           0
     25468 TIP3     2711     TIP3     H2       HT       0.417000       1.00800           0
     25469 TIP3     2712     TIP3     OH2      OT      -0.834000       15.9994           0
     25470 TIP3     2712     TIP3     H1       HT       0.417000       1.00800           0
     25471 TIP3     2712     TIP3     H2       HT       0.417000       1.00800           0
     25472 TIP3     2713     TIP3     OH2      OT      -0.834000       15.9994           0
     25473 TIP3     2713     TIP3     H1       HT       0.417000       1.00800           0
     25474 TIP3     2713     TIP3     H2       HT       0.417000       1.00800           0
     25475 TIP3     2714     TIP3     OH2      OT      -0.834000       15.9994           0
     25476 TIP3     2714     TIP3     H1       HT       0.417000       1.00800           0
     25477 TIP3     2714     TIP3     H2       HT       0.417000       1.00800           0
     25478 TIP3     2715     TIP3     OH2      OT      -0.834000       15.9994           0
     25479 TIP3     2715     TIP3     H1       HT       0.417000       1.00800           0
     25480 TIP3     2715     TIP3     H2       HT       0.417000       1.00800           0
     25481 TIP3     2716     TIP3     OH2      OT      -0.834000       15.9994           0
     25482 TIP3     2716     TIP3     H1       HT       0.417000       1.00800           0
     25483 TIP3     2716     TIP3     H2       HT       0.417000       1.00800           0
     25484 TIP3     2717     TIP3     OH2      OT      -0.834000       15.9994           0
     25485 TIP3     2717     TIP3     H1       HT       0.417000       1.00800           0
     25486 TIP3     2717     TIP3     H2       HT       0.417000       1.00800           0
     25487 TIP3     2718     TIP3     OH2      OT      -0.834000       15.9994           0
     25488 TIP3     2718     TIP3     H1       HT       0.417000       1.00800           0
     25489 TIP3     2718     TIP3     H2       HT       0.417000       1.00800           0
     25490 TIP3     2719     TIP3     OH2      OT      -0.834000       15.9994           0
     25491 TIP3     2719     TIP3     H1       HT       0.417000       1.00800           0
     25492 TIP3     2719     TIP3     H2       HT       0.417000       1.00800           0
     25493 TIP3     2720     TIP3     OH2      OT      -0.834000       15.9994           0
     25494 TIP3     2720     TIP3     H1       HT       0.417000       1.00800           0
     25495 TIP3     2720     TIP3     H2       HT       0.417000       1.00800           0
     25496 TIP3     2721     TIP3     OH2      OT      -0.834000       15.9994           0
     25497 TIP3     2721     TIP3     H1       HT       0.417000       1.00800           0
     25498 TIP3     2721     TIP3     H2       HT       0.417000       1.00800           0
     25499 TIP3     2722     TIP3     OH2      OT      -0.834000       15.9994           0
     25500 TIP3     2722     TIP3     H1       HT       0.417000       1.00800           0
     25501 TIP3     2722     TIP3     H2       HT       0.417000       1.00800           0
     25502 TIP3     2723     TIP3     OH2      OT      -0.834000       15.9994           0
     25503 TIP3     2723     TIP3     H1       HT       0.417000       1.00800           0
     25504 TIP3     2723     TIP3     H2       HT       0.417000       1.00800           0
     25505 TIP3     2724     TIP3     OH2      OT      -0.834000       15.9994           0
     25506 TIP3     2724     TIP3     H1       HT       0.417000       1.00800           0
     25507 TIP3     2724     TIP3     H2       HT       0.417000       1.00800           0
     25508 TIP3     2725     TIP3     OH2      OT      -0.834000       15.9994           0
     25509 TIP3     2725     TIP3     H1       HT       0.417000       1.00800           0
     25510 TIP3     2725     TIP3     H2       HT       0.417000       1.00800           0
     25511 TIP3     2726     TIP3     OH2      OT      -0.834000       15.9994           0
     25512 TIP3     2726     TIP3     H1       HT       0.417000       1.00800           0
     25513 TIP3     2726     TIP3     H2       HT       0.417000       1.00800           0
     25514 TIP3     2727     TIP3     OH2      OT      -0.834000       15.9994           0
     25515 TIP3     2727     TIP3     H1       HT       0.417000       1.00800           0
     25516 TIP3     2727     TIP3     H2       HT       0.417000       1.00800           0
     25517 TIP3     2728     TIP3     OH2      OT      -0.834000       15.9994           0
     25518 TIP3     2728     TIP3     H1       HT       0.417000       1.00800           0
     25519 TIP3     2728     TIP3     H2       HT       0.417000       1.00800           0
     25520 TIP3     2729     TIP3     OH2      OT      -0.834000       15.9994           0
     25521 TIP3     2729     TIP3     H1       HT       0.417000       1.00800           0
     25522 TIP3     2729     TIP3     H2       HT       0.417000       1.00800           0
     25523 TIP3     2730     TIP3     OH2      OT      -0.834000       15.9994           0
     25524 TIP3     2730     TIP3     H1       HT       0.417000       1.00800           0
     25525 TIP3     2730     TIP3     H2       HT       0.417000       1.00800           0
     25526 TIP3     2731     TIP3     OH2      OT      -0.834000       15.9994           0
     25527 TIP3     2731     TIP3     H1       HT       0.417000       1.00800           0
     25528 TIP3     2731     TIP3     H2       HT       0.417000       1.00800           0
     25529 TIP3     2732     TIP3     OH2      OT      -0.834000       15.9994           0
     25530 TIP3     2732     TIP3     H1       HT       0.417000       1.00800           0
     25531 TIP3     2732     TIP3     H2       HT       0.417000       1.00800           0
     25532 TIP3     2733     TIP3     OH2      OT      -0.834000       15.9994           0
     25533 TIP3     2733     TIP3     H1       HT       0.417000       1.00800           0
     25534 TIP3     2733     TIP3     H2       HT       0.417000       1.00800           0
     25535 TIP3     2734     TIP3     OH2      OT      -0.834000       15.9994           0
     25536 TIP3     2734     TIP3     H1       HT       0.417000       1.00800           0
     25537 TIP3     2734     TIP3     H2       HT       0.417000       1.00800           0
     25538 TIP3     2735     TIP3     OH2      OT      -0.834000       15.9994           0
     25539 TIP3     2735     TIP3     H1       HT       0.417000       1.00800           0
     25540 TIP3     2735     TIP3     H2       HT       0.417000       1.00800           0
     25541 TIP3     2736     TIP3     OH2      OT      -0.834000       15.9994           0
     25542 TIP3     2736     TIP3     H1       HT       0.417000       1.00800           0
     25543 TIP3     2736     TIP3     H2       HT       0.417000       1.00800           0
     25544 TIP3     2737     TIP3     OH2      OT      -0.834000       15.9994           0
     25545 TIP3     2737     TIP3     H1       HT       0.417000       1.00800           0
     25546 TIP3     2737     TIP3     H2       HT       0.417000       1.00800           0
     25547 TIP3     2738     TIP3     OH2      OT      -0.834000       15.9994           0
     25548 TIP3     2738     TIP3     H1       HT       0.417000       1.00800           0
     25549 TIP3     2738     TIP3     H2       HT       0.417000       1.00800           0
     25550 TIP3     2739     TIP3     OH2      OT      -0.834000       15.9994           0
     25551 TIP3     2739     TIP3     H1       HT       0.417000       1.00800           0
     25552 TIP3     2739     TIP3     H2       HT       0.417000       1.00800           0
     25553 TIP3     2740     TIP3     OH2      OT      -0.834000       15.9994           0
     25554 TIP3     2740     TIP3     H1       HT       0.417000       1.00800           0
     25555 TIP3     2740     TIP3     H2       HT       0.417000       1.00800           0
     25556 TIP3     2741     TIP3     OH2      OT      -0.834000       15.9994           0
     25557 TIP3     2741     TIP3     H1       HT       0.417000       1.00800           0
     25558 TIP3     2741     TIP3     H2       HT       0.417000       1.00800           0
     25559 TIP3     2742     TIP3     OH2      OT      -0.834000       15.9994           0
     25560 TIP3     2742     TIP3     H1       HT       0.417000       1.00800           0
     25561 TIP3     2742     TIP3     H2       HT       0.417000       1.00800           0
     25562 TIP3     2743     TIP3     OH2      OT      -0.834000       15.9994           0
     25563 TIP3     2743     TIP3     H1       HT       0.417000       1.00800           0
     25564 TIP3     2743     TIP3     H2       HT       0.417000       1.00800           0
     25565 TIP3     2744     TIP3     OH2      OT      -0.834000       15.9994           0
     25566 TIP3     2744     TIP3     H1       HT       0.417000       1.00800           0
     25567 TIP3     2744     TIP3     H2       HT       0.417000       1.00800           0
     25568 TIP3     2745     TIP3     OH2      OT      -0.834000       15.9994           0
     25569 TIP3     2745     TIP3     H1       HT       0.417000       1.00800           0
     25570 TIP3     2745     TIP3     H2       HT       0.417000       1.00800           0
     25571 TIP3     2746     TIP3     OH2      OT      -0.834000       15.9994           0
     25572 TIP3     2746     TIP3     H1       HT       0.417000       1.00800           0
     25573 TIP3     2746     TIP3     H2       HT       0.417000       1.00800           0
     25574 TIP3     2747     TIP3     OH2      OT      -0.834000       15.9994           0
     25575 TIP3     2747     TIP3     H1       HT       0.417000       1.00800           0
     25576 TIP3     2747     TIP3     H2       HT       0.417000       1.00800           0
     25577 TIP3     2748     TIP3     OH2      OT      -0.834000       15.9994           0
     25578 TIP3     2748     TIP3     H1       HT       0.417000       1.00800           0
     25579 TIP3     2748     TIP3     H2       HT       0.417000       1.00800           0
     25580 TIP3     2749     TIP3     OH2      OT      -0.834000       15.9994           0
     25581 TIP3     2749     TIP3     H1       HT       0.417000       1.00800           0
     25582 TIP3     2749     TIP3     H2       HT       0.417000       1.00800           0
     25583 TIP3     2750     TIP3     OH2      OT      -0.834000       15.9994           0
     25584 TIP3     2750     TIP3     H1       HT       0.417000       1.00800           0
     25585 TIP3     2750     TIP3     H2       HT       0.417000       1.00800           0
     25586 TIP3     2751     TIP3     OH2      OT      -0.834000       15.9994           0
     25587 TIP3     2751     TIP3     H1       HT       0.417000       1.00800           0
     25588 TIP3     2751     TIP3     H2       HT       0.417000       1.00800           0
     25589 TIP3     2752     TIP3     OH2      OT      -0.834000       15.9994           0
     25590 TIP3     2752     TIP3     H1       HT       0.417000       1.00800           0
     25591 TIP3     2752     TIP3     H2       HT       0.417000       1.00800           0
     25592 TIP3     2753     TIP3     OH2      OT      -0.834000       15.9994           0
     25593 TIP3     2753     TIP3     H1       HT       0.417000       1.00800           0
     25594 TIP3     2753     TIP3     H2       HT       0.417000       1.00800           0
     25595 TIP3     2754     TIP3     OH2      OT      -0.834000       15.9994           0
     25596 TIP3     2754     TIP3     H1       HT       0.417000       1.00800           0
     25597 TIP3     2754     TIP3     H2       HT       0.417000       1.00800           0
     25598 TIP3     2755     TIP3     OH2      OT      -0.834000       15.9994           0
     25599 TIP3     2755     TIP3     H1       HT       0.417000       1.00800           0
     25600 TIP3     2755     TIP3     H2       HT       0.417000       1.00800           0
     25601 TIP3     2756     TIP3     OH2      OT      -0.834000       15.9994           0
     25602 TIP3     2756     TIP3     H1       HT       0.417000       1.00800           0
     25603 TIP3     2756     TIP3     H2       HT       0.417000       1.00800           0
     25604 TIP3     2757     TIP3     OH2      OT      -0.834000       15.9994           0
     25605 TIP3     2757     TIP3     H1       HT       0.417000       1.00800           0
     25606 TIP3     2757     TIP3     H2       HT       0.417000       1.00800           0
     25607 TIP3     2758     TIP3     OH2      OT      -0.834000       15.9994           0
     25608 TIP3     2758     TIP3     H1       HT       0.417000       1.00800           0
     25609 TIP3     2758     TIP3     H2       HT       0.417000       1.00800           0
     25610 TIP3     2759     TIP3     OH2      OT      -0.834000       15.9994           0
     25611 TIP3     2759     TIP3     H1       HT       0.417000       1.00800           0
     25612 TIP3     2759     TIP3     H2       HT       0.417000       1.00800           0
     25613 TIP3     2760     TIP3     OH2      OT      -0.834000       15.9994           0
     25614 TIP3     2760     TIP3     H1       HT       0.417000       1.00800           0
     25615 TIP3     2760     TIP3     H2       HT       0.417000       1.00800           0
     25616 TIP3     2761     TIP3     OH2      OT      -0.834000       15.9994           0
     25617 TIP3     2761     TIP3     H1       HT       0.417000       1.00800           0
     25618 TIP3     2761     TIP3     H2       HT       0.417000       1.00800           0
     25619 TIP3     2762     TIP3     OH2      OT      -0.834000       15.9994           0
     25620 TIP3     2762     TIP3     H1       HT       0.417000       1.00800           0
     25621 TIP3     2762     TIP3     H2       HT       0.417000       1.00800           0
     25622 TIP3     2763     TIP3     OH2      OT      -0.834000       15.9994           0
     25623 TIP3     2763     TIP3     H1       HT       0.417000       1.00800           0
     25624 TIP3     2763     TIP3     H2       HT       0.417000       1.00800           0
     25625 TIP3     2764     TIP3     OH2      OT      -0.834000       15.9994           0
     25626 TIP3     2764     TIP3     H1       HT       0.417000       1.00800           0
     25627 TIP3     2764     TIP3     H2       HT       0.417000       1.00800           0
     25628 TIP3     2765     TIP3     OH2      OT      -0.834000       15.9994           0
     25629 TIP3     2765     TIP3     H1       HT       0.417000       1.00800           0
     25630 TIP3     2765     TIP3     H2       HT       0.417000       1.00800           0
     25631 TIP3     2766     TIP3     OH2      OT      -0.834000       15.9994           0
     25632 TIP3     2766     TIP3     H1       HT       0.417000       1.00800           0
     25633 TIP3     2766     TIP3     H2       HT       0.417000       1.00800           0
     25634 TIP3     2767     TIP3     OH2      OT      -0.834000       15.9994           0
     25635 TIP3     2767     TIP3     H1       HT       0.417000       1.00800           0
     25636 TIP3     2767     TIP3     H2       HT       0.417000       1.00800           0
     25637 TIP3     2768     TIP3     OH2      OT      -0.834000       15.9994           0
     25638 TIP3     2768     TIP3     H1       HT       0.417000       1.00800           0
     25639 TIP3     2768     TIP3     H2       HT       0.417000       1.00800           0
     25640 TIP3     2769     TIP3     OH2      OT      -0.834000       15.9994           0
     25641 TIP3     2769     TIP3     H1       HT       0.417000       1.00800           0
     25642 TIP3     2769     TIP3     H2       HT       0.417000       1.00800           0
     25643 TIP3     2770     TIP3     OH2      OT      -0.834000       15.9994           0
     25644 TIP3     2770     TIP3     H1       HT       0.417000       1.00800           0
     25645 TIP3     2770     TIP3     H2       HT       0.417000       1.00800           0
     25646 TIP3     2771     TIP3     OH2      OT      -0.834000       15.9994           0
     25647 TIP3     2771     TIP3     H1       HT       0.417000       1.00800           0
     25648 TIP3     2771     TIP3     H2       HT       0.417000       1.00800           0
     25649 TIP3     2772     TIP3     OH2      OT      -0.834000       15.9994           0
     25650 TIP3     2772     TIP3     H1       HT       0.417000       1.00800           0
     25651 TIP3     2772     TIP3     H2       HT       0.417000       1.00800           0
     25652 TIP3     2773     TIP3     OH2      OT      -0.834000       15.9994           0
     25653 TIP3     2773     TIP3     H1       HT       0.417000       1.00800           0
     25654 TIP3     2773     TIP3     H2       HT       0.417000       1.00800           0
     25655 TIP3     2774     TIP3     OH2      OT      -0.834000       15.9994           0
     25656 TIP3     2774     TIP3     H1       HT       0.417000       1.00800           0
     25657 TIP3     2774     TIP3     H2       HT       0.417000       1.00800           0
     25658 TIP3     2775     TIP3     OH2      OT      -0.834000       15.9994           0
     25659 TIP3     2775     TIP3     H1       HT       0.417000       1.00800           0
     25660 TIP3     2775     TIP3     H2       HT       0.417000       1.00800           0
     25661 TIP3     2776     TIP3     OH2      OT      -0.834000       15.9994           0
     25662 TIP3     2776     TIP3     H1       HT       0.417000       1.00800           0
     25663 TIP3     2776     TIP3     H2       HT       0.417000       1.00800           0
     25664 TIP3     2777     TIP3     OH2      OT      -0.834000       15.9994           0
     25665 TIP3     2777     TIP3     H1       HT       0.417000       1.00800           0
     25666 TIP3     2777     TIP3     H2       HT       0.417000       1.00800           0
     25667 TIP3     2778     TIP3     OH2      OT      -0.834000       15.9994           0
     25668 TIP3     2778     TIP3     H1       HT       0.417000       1.00800           0
     25669 TIP3     2778     TIP3     H2       HT       0.417000       1.00800           0
     25670 TIP3     2779     TIP3     OH2      OT      -0.834000       15.9994           0
     25671 TIP3     2779     TIP3     H1       HT       0.417000       1.00800           0
     25672 TIP3     2779     TIP3     H2       HT       0.417000       1.00800           0
     25673 TIP3     2780     TIP3     OH2      OT      -0.834000       15.9994           0
     25674 TIP3     2780     TIP3     H1       HT       0.417000       1.00800           0
     25675 TIP3     2780     TIP3     H2       HT       0.417000       1.00800           0
     25676 TIP3     2781     TIP3     OH2      OT      -0.834000       15.9994           0
     25677 TIP3     2781     TIP3     H1       HT       0.417000       1.00800           0
     25678 TIP3     2781     TIP3     H2       HT       0.417000       1.00800           0
     25679 TIP3     2782     TIP3     OH2      OT      -0.834000       15.9994           0
     25680 TIP3     2782     TIP3     H1       HT       0.417000       1.00800           0
     25681 TIP3     2782     TIP3     H2       HT       0.417000       1.00800           0
     25682 TIP3     2783     TIP3     OH2      OT      -0.834000       15.9994           0
     25683 TIP3     2783     TIP3     H1       HT       0.417000       1.00800           0
     25684 TIP3     2783     TIP3     H2       HT       0.417000       1.00800           0
     25685 TIP3     2784     TIP3     OH2      OT      -0.834000       15.9994           0
     25686 TIP3     2784     TIP3     H1       HT       0.417000       1.00800           0
     25687 TIP3     2784     TIP3     H2       HT       0.417000       1.00800           0
     25688 TIP3     2785     TIP3     OH2      OT      -0.834000       15.9994           0
     25689 TIP3     2785     TIP3     H1       HT       0.417000       1.00800           0
     25690 TIP3     2785     TIP3     H2       HT       0.417000       1.00800           0
     25691 TIP3     2786     TIP3     OH2      OT      -0.834000       15.9994           0
     25692 TIP3     2786     TIP3     H1       HT       0.417000       1.00800           0
     25693 TIP3     2786     TIP3     H2       HT       0.417000       1.00800           0
     25694 TIP3     2787     TIP3     OH2      OT      -0.834000       15.9994           0
     25695 TIP3     2787     TIP3     H1       HT       0.417000       1.00800           0
     25696 TIP3     2787     TIP3     H2       HT       0.417000       1.00800           0
     25697 TIP3     2788     TIP3     OH2      OT      -0.834000       15.9994           0
     25698 TIP3     2788     TIP3     H1       HT       0.417000       1.00800           0
     25699 TIP3     2788     TIP3     H2       HT       0.417000       1.00800           0
     25700 TIP3     2789     TIP3     OH2      OT      -0.834000       15.9994           0
     25701 TIP3     2789     TIP3     H1       HT       0.417000       1.00800           0
     25702 TIP3     2789     TIP3     H2       HT       0.417000       1.00800           0
     25703 TIP3     2790     TIP3     OH2      OT      -0.834000       15.9994           0
     25704 TIP3     2790     TIP3     H1       HT       0.417000       1.00800           0
     25705 TIP3     2790     TIP3     H2       HT       0.417000       1.00800           0
     25706 TIP3     2791     TIP3     OH2      OT      -0.834000       15.9994           0
     25707 TIP3     2791     TIP3     H1       HT       0.417000       1.00800           0
     25708 TIP3     2791     TIP3     H2       HT       0.417000       1.00800           0
     25709 TIP3     2792     TIP3     OH2      OT      -0.834000       15.9994           0
     25710 TIP3     2792     TIP3     H1       HT       0.417000       1.00800           0
     25711 TIP3     2792     TIP3     H2       HT       0.417000       1.00800           0
     25712 TIP3     2793     TIP3     OH2      OT      -0.834000       15.9994           0
     25713 TIP3     2793     TIP3     H1       HT       0.417000       1.00800           0
     25714 TIP3     2793     TIP3     H2       HT       0.417000       1.00800           0
     25715 TIP3     2794     TIP3     OH2      OT      -0.834000       15.9994           0
     25716 TIP3     2794     TIP3     H1       HT       0.417000       1.00800           0
     25717 TIP3     2794     TIP3     H2       HT       0.417000       1.00800           0
     25718 TIP3     2795     TIP3     OH2      OT      -0.834000       15.9994           0
     25719 TIP3     2795     TIP3     H1       HT       0.417000       1.00800           0
     25720 TIP3     2795     TIP3     H2       HT       0.417000       1.00800           0
     25721 TIP3     2796     TIP3     OH2      OT      -0.834000       15.9994           0
     25722 TIP3     2796     TIP3     H1       HT       0.417000       1.00800           0
     25723 TIP3     2796     TIP3     H2       HT       0.417000       1.00800           0
     25724 TIP3     2797     TIP3     OH2      OT      -0.834000       15.9994           0
     25725 TIP3     2797     TIP3     H1       HT       0.417000       1.00800           0
     25726 TIP3     2797     TIP3     H2       HT       0.417000       1.00800           0
     25727 TIP3     2798     TIP3     OH2      OT      -0.834000       15.9994           0
     25728 TIP3     2798     TIP3     H1       HT       0.417000       1.00800           0
     25729 TIP3     2798     TIP3     H2       HT       0.417000       1.00800           0
     25730 TIP3     2799     TIP3     OH2      OT      -0.834000       15.9994           0
     25731 TIP3     2799     TIP3     H1       HT       0.417000       1.00800           0
     25732 TIP3     2799     TIP3     H2       HT       0.417000       1.00800           0
     25733 TIP3     2800     TIP3     OH2      OT      -0.834000       15.9994           0
     25734 TIP3     2800     TIP3     H1       HT       0.417000       1.00800           0
     25735 TIP3     2800     TIP3     H2       HT       0.417000       1.00800           0
     25736 TIP3     2801     TIP3     OH2      OT      -0.834000       15.9994           0
     25737 TIP3     2801     TIP3     H1       HT       0.417000       1.00800           0
     25738 TIP3     2801     TIP3     H2       HT       0.417000       1.00800           0
     25739 TIP3     2802     TIP3     OH2      OT      -0.834000       15.9994           0
     25740 TIP3     2802     TIP3     H1       HT       0.417000       1.00800           0
     25741 TIP3     2802     TIP3     H2       HT       0.417000       1.00800           0
     25742 TIP3     2803     TIP3     OH2      OT      -0.834000       15.9994           0
     25743 TIP3     2803     TIP3     H1       HT       0.417000       1.00800           0
     25744 TIP3     2803     TIP3     H2       HT       0.417000       1.00800           0
     25745 TIP3     2804     TIP3     OH2      OT      -0.834000       15.9994           0
     25746 TIP3     2804     TIP3     H1       HT       0.417000       1.00800           0
     25747 TIP3     2804     TIP3     H2       HT       0.417000       1.00800           0
     25748 TIP3     2805     TIP3     OH2      OT      -0.834000       15.9994           0
     25749 TIP3     2805     TIP3     H1       HT       0.417000       1.00800           0
     25750 TIP3     2805     TIP3     H2       HT       0.417000       1.00800           0
     25751 TIP3     2806     TIP3     OH2      OT      -0.834000       15.9994           0
     25752 TIP3     2806     TIP3     H1       HT       0.417000       1.00800           0
     25753 TIP3     2806     TIP3     H2       HT       0.417000       1.00800           0
     25754 TIP3     2807     TIP3     OH2      OT      -0.834000       15.9994           0
     25755 TIP3     2807     TIP3     H1       HT       0.417000       1.00800           0
     25756 TIP3     2807     TIP3     H2       HT       0.417000       1.00800           0
     25757 TIP3     2808     TIP3     OH2      OT      -0.834000       15.9994           0
     25758 TIP3     2808     TIP3     H1       HT       0.417000       1.00800           0
     25759 TIP3     2808     TIP3     H2       HT       0.417000       1.00800           0
     25760 TIP3     2809     TIP3     OH2      OT      -0.834000       15.9994           0
     25761 TIP3     2809     TIP3     H1       HT       0.417000       1.00800           0
     25762 TIP3     2809     TIP3     H2       HT       0.417000       1.00800           0
     25763 TIP3     2810     TIP3     OH2      OT      -0.834000       15.9994           0
     25764 TIP3     2810     TIP3     H1       HT       0.417000       1.00800           0
     25765 TIP3     2810     TIP3     H2       HT       0.417000       1.00800           0
     25766 TIP3     2811     TIP3     OH2      OT      -0.834000       15.9994           0
     25767 TIP3     2811     TIP3     H1       HT       0.417000       1.00800           0
     25768 TIP3     2811     TIP3     H2       HT       0.417000       1.00800           0
     25769 TIP3     2812     TIP3     OH2      OT      -0.834000       15.9994           0
     25770 TIP3     2812     TIP3     H1       HT       0.417000       1.00800           0
     25771 TIP3     2812     TIP3     H2       HT       0.417000       1.00800           0
     25772 TIP3     2813     TIP3     OH2      OT      -0.834000       15.9994           0
     25773 TIP3     2813     TIP3     H1       HT       0.417000       1.00800           0
     25774 TIP3     2813     TIP3     H2       HT       0.417000       1.00800           0
     25775 TIP3     2814     TIP3     OH2      OT      -0.834000       15.9994           0
     25776 TIP3     2814     TIP3     H1       HT       0.417000       1.00800           0
     25777 TIP3     2814     TIP3     H2       HT       0.417000       1.00800           0
     25778 TIP3     2815     TIP3     OH2      OT      -0.834000       15.9994           0
     25779 TIP3     2815     TIP3     H1       HT       0.417000       1.00800           0
     25780 TIP3     2815     TIP3     H2       HT       0.417000       1.00800           0
     25781 TIP3     2816     TIP3     OH2      OT      -0.834000       15.9994           0
     25782 TIP3     2816     TIP3     H1       HT       0.417000       1.00800           0
     25783 TIP3     2816     TIP3     H2       HT       0.417000       1.00800           0
     25784 TIP3     2817     TIP3     OH2      OT      -0.834000       15.9994           0
     25785 TIP3     2817     TIP3     H1       HT       0.417000       1.00800           0
     25786 TIP3     2817     TIP3     H2       HT       0.417000       1.00800           0
     25787 TIP3     2818     TIP3     OH2      OT      -0.834000       15.9994           0
     25788 TIP3     2818     TIP3     H1       HT       0.417000       1.00800           0
     25789 TIP3     2818     TIP3     H2       HT       0.417000       1.00800           0
     25790 TIP3     2819     TIP3     OH2      OT      -0.834000       15.9994           0
     25791 TIP3     2819     TIP3     H1       HT       0.417000       1.00800           0
     25792 TIP3     2819     TIP3     H2       HT       0.417000       1.00800           0
     25793 TIP3     2820     TIP3     OH2      OT      -0.834000       15.9994           0
     25794 TIP3     2820     TIP3     H1       HT       0.417000       1.00800           0
     25795 TIP3     2820     TIP3     H2       HT       0.417000       1.00800           0
     25796 TIP3     2821     TIP3     OH2      OT      -0.834000       15.9994           0
     25797 TIP3     2821     TIP3     H1       HT       0.417000       1.00800           0
     25798 TIP3     2821     TIP3     H2       HT       0.417000       1.00800           0
     25799 TIP3     2822     TIP3     OH2      OT      -0.834000       15.9994           0
     25800 TIP3     2822     TIP3     H1       HT       0.417000       1.00800           0
     25801 TIP3     2822     TIP3     H2       HT       0.417000       1.00800           0
     25802 TIP3     2823     TIP3     OH2      OT      -0.834000       15.9994           0
     25803 TIP3     2823     TIP3     H1       HT       0.417000       1.00800           0
     25804 TIP3     2823     TIP3     H2       HT       0.417000       1.00800           0
     25805 TIP3     2824     TIP3     OH2      OT      -0.834000       15.9994           0
     25806 TIP3     2824     TIP3     H1       HT       0.417000       1.00800           0
     25807 TIP3     2824     TIP3     H2       HT       0.417000       1.00800           0
     25808 TIP3     2825     TIP3     OH2      OT      -0.834000       15.9994           0
     25809 TIP3     2825     TIP3     H1       HT       0.417000       1.00800           0
     25810 TIP3     2825     TIP3     H2       HT       0.417000       1.00800           0
     25811 TIP3     2826     TIP3     OH2      OT      -0.834000       15.9994           0
     25812 TIP3     2826     TIP3     H1       HT       0.417000       1.00800           0
     25813 TIP3     2826     TIP3     H2       HT       0.417000       1.00800           0
     25814 TIP3     2827     TIP3     OH2      OT      -0.834000       15.9994           0
     25815 TIP3     2827     TIP3     H1       HT       0.417000       1.00800           0
     25816 TIP3     2827     TIP3     H2       HT       0.417000       1.00800           0
     25817 TIP3     2828     TIP3     OH2      OT      -0.834000       15.9994           0
     25818 TIP3     2828     TIP3     H1       HT       0.417000       1.00800           0
     25819 TIP3     2828     TIP3     H2       HT       0.417000       1.00800           0
     25820 TIP3     2829     TIP3     OH2      OT      -0.834000       15.9994           0
     25821 TIP3     2829     TIP3     H1       HT       0.417000       1.00800           0
     25822 TIP3     2829     TIP3     H2       HT       0.417000       1.00800           0
     25823 TIP3     2830     TIP3     OH2      OT      -0.834000       15.9994           0
     25824 TIP3     2830     TIP3     H1       HT       0.417000       1.00800           0
     25825 TIP3     2830     TIP3     H2       HT       0.417000       1.00800           0
     25826 TIP3     2831     TIP3     OH2      OT      -0.834000       15.9994           0
     25827 TIP3     2831     TIP3     H1       HT       0.417000       1.00800           0
     25828 TIP3     2831     TIP3     H2       HT       0.417000       1.00800           0
     25829 TIP3     2832     TIP3     OH2      OT      -0.834000       15.9994           0
     25830 TIP3     2832     TIP3     H1       HT       0.417000       1.00800           0
     25831 TIP3     2832     TIP3     H2       HT       0.417000       1.00800           0
     25832 TIP3     2833     TIP3     OH2      OT      -0.834000       15.9994           0
     25833 TIP3     2833     TIP3     H1       HT       0.417000       1.00800           0
     25834 TIP3     2833     TIP3     H2       HT       0.417000       1.00800           0
     25835 TIP3     2834     TIP3     OH2      OT      -0.834000       15.9994           0
     25836 TIP3     2834     TIP3     H1       HT       0.417000       1.00800           0
     25837 TIP3     2834     TIP3     H2       HT       0.417000       1.00800           0
     25838 TIP3     2835     TIP3     OH2      OT      -0.834000       15.9994           0
     25839 TIP3     2835     TIP3     H1       HT       0.417000       1.00800           0
     25840 TIP3     2835     TIP3     H2       HT       0.417000       1.00800           0
     25841 TIP3     2836     TIP3     OH2      OT      -0.834000       15.9994           0
     25842 TIP3     2836     TIP3     H1       HT       0.417000       1.00800           0
     25843 TIP3     2836     TIP3     H2       HT       0.417000       1.00800           0
     25844 TIP3     2837     TIP3     OH2      OT      -0.834000       15.9994           0
     25845 TIP3     2837     TIP3     H1       HT       0.417000       1.00800           0
     25846 TIP3     2837     TIP3     H2       HT       0.417000       1.00800           0
     25847 TIP3     2838     TIP3     OH2      OT      -0.834000       15.9994           0
     25848 TIP3     2838     TIP3     H1       HT       0.417000       1.00800           0
     25849 TIP3     2838     TIP3     H2       HT       0.417000       1.00800           0
     25850 TIP3     2839     TIP3     OH2      OT      -0.834000       15.9994           0
     25851 TIP3     2839     TIP3     H1       HT       0.417000       1.00800           0
     25852 TIP3     2839     TIP3     H2       HT       0.417000       1.00800           0
     25853 TIP3     2840     TIP3     OH2      OT      -0.834000       15.9994           0
     25854 TIP3     2840     TIP3     H1       HT       0.417000       1.00800           0
     25855 TIP3     2840     TIP3     H2       HT       0.417000       1.00800           0
     25856 TIP3     2841     TIP3     OH2      OT      -0.834000       15.9994           0
     25857 TIP3     2841     TIP3     H1       HT       0.417000       1.00800           0
     25858 TIP3     2841     TIP3     H2       HT       0.417000       1.00800           0
     25859 TIP3     2842     TIP3     OH2      OT      -0.834000       15.9994           0
     25860 TIP3     2842     TIP3     H1       HT       0.417000       1.00800           0
     25861 TIP3     2842     TIP3     H2       HT       0.417000       1.00800           0
     25862 TIP3     2843     TIP3     OH2      OT      -0.834000       15.9994           0
     25863 TIP3     2843     TIP3     H1       HT       0.417000       1.00800           0
     25864 TIP3     2843     TIP3     H2       HT       0.417000       1.00800           0
     25865 TIP3     2844     TIP3     OH2      OT      -0.834000       15.9994           0
     25866 TIP3     2844     TIP3     H1       HT       0.417000       1.00800           0
     25867 TIP3     2844     TIP3     H2       HT       0.417000       1.00800           0
     25868 TIP3     2845     TIP3     OH2      OT      -0.834000       15.9994           0
     25869 TIP3     2845     TIP3     H1       HT       0.417000       1.00800           0
     25870 TIP3     2845     TIP3     H2       HT       0.417000       1.00800           0
     25871 TIP3     2846     TIP3     OH2      OT      -0.834000       15.9994           0
     25872 TIP3     2846     TIP3     H1       HT       0.417000       1.00800           0
     25873 TIP3     2846     TIP3     H2       HT       0.417000       1.00800           0
     25874 TIP3     2847     TIP3     OH2      OT      -0.834000       15.9994           0
     25875 TIP3     2847     TIP3     H1       HT       0.417000       1.00800           0
     25876 TIP3     2847     TIP3     H2       HT       0.417000       1.00800           0
     25877 TIP3     2848     TIP3     OH2      OT      -0.834000       15.9994           0
     25878 TIP3     2848     TIP3     H1       HT       0.417000       1.00800           0
     25879 TIP3     2848     TIP3     H2       HT       0.417000       1.00800           0
     25880 TIP3     2849     TIP3     OH2      OT      -0.834000       15.9994           0
     25881 TIP3     2849     TIP3     H1       HT       0.417000       1.00800           0
     25882 TIP3     2849     TIP3     H2       HT       0.417000       1.00800           0
     25883 TIP3     2850     TIP3     OH2      OT      -0.834000       15.9994           0
     25884 TIP3     2850     TIP3     H1       HT       0.417000       1.00800           0
     25885 TIP3     2850     TIP3     H2       HT       0.417000       1.00800           0
     25886 TIP3     2851     TIP3     OH2      OT      -0.834000       15.9994           0
     25887 TIP3     2851     TIP3     H1       HT       0.417000       1.00800           0
     25888 TIP3     2851     TIP3     H2       HT       0.417000       1.00800           0
     25889 TIP3     2852     TIP3     OH2      OT      -0.834000       15.9994           0
     25890 TIP3     2852     TIP3     H1       HT       0.417000       1.00800           0
     25891 TIP3     2852     TIP3     H2       HT       0.417000       1.00800           0
     25892 TIP3     2853     TIP3     OH2      OT      -0.834000       15.9994           0
     25893 TIP3     2853     TIP3     H1       HT       0.417000       1.00800           0
     25894 TIP3     2853     TIP3     H2       HT       0.417000       1.00800           0
     25895 TIP3     2854     TIP3     OH2      OT      -0.834000       15.9994           0
     25896 TIP3     2854     TIP3     H1       HT       0.417000       1.00800           0
     25897 TIP3     2854     TIP3     H2       HT       0.417000       1.00800           0
     25898 TIP3     2855     TIP3     OH2      OT      -0.834000       15.9994           0
     25899 TIP3     2855     TIP3     H1       HT       0.417000       1.00800           0
     25900 TIP3     2855     TIP3     H2       HT       0.417000       1.00800           0
     25901 TIP3     2856     TIP3     OH2      OT      -0.834000       15.9994           0
     25902 TIP3     2856     TIP3     H1       HT       0.417000       1.00800           0
     25903 TIP3     2856     TIP3     H2       HT       0.417000       1.00800           0
     25904 TIP3     2857     TIP3     OH2      OT      -0.834000       15.9994           0
     25905 TIP3     2857     TIP3     H1       HT       0.417000       1.00800           0
     25906 TIP3     2857     TIP3     H2       HT       0.417000       1.00800           0
     25907 TIP3     2858     TIP3     OH2      OT      -0.834000       15.9994           0
     25908 TIP3     2858     TIP3     H1       HT       0.417000       1.00800           0
     25909 TIP3     2858     TIP3     H2       HT       0.417000       1.00800           0
     25910 TIP3     2859     TIP3     OH2      OT      -0.834000       15.9994           0
     25911 TIP3     2859     TIP3     H1       HT       0.417000       1.00800           0
     25912 TIP3     2859     TIP3     H2       HT       0.417000       1.00800           0
     25913 TIP3     2860     TIP3     OH2      OT      -0.834000       15.9994           0
     25914 TIP3     2860     TIP3     H1       HT       0.417000       1.00800           0
     25915 TIP3     2860     TIP3     H2       HT       0.417000       1.00800           0
     25916 TIP3     2861     TIP3     OH2      OT      -0.834000       15.9994           0
     25917 TIP3     2861     TIP3     H1       HT       0.417000       1.00800           0
     25918 TIP3     2861     TIP3     H2       HT       0.417000       1.00800           0
     25919 TIP3     2862     TIP3     OH2      OT      -0.834000       15.9994           0
     25920 TIP3     2862     TIP3     H1       HT       0.417000       1.00800           0
     25921 TIP3     2862     TIP3     H2       HT       0.417000       1.00800           0
     25922 TIP3     2863     TIP3     OH2      OT      -0.834000       15.9994           0
     25923 TIP3     2863     TIP3     H1       HT       0.417000       1.00800           0
     25924 TIP3     2863     TIP3     H2       HT       0.417000       1.00800           0
     25925 TIP3     2864     TIP3     OH2      OT      -0.834000       15.9994           0
     25926 TIP3     2864     TIP3     H1       HT       0.417000       1.00800           0
     25927 TIP3     2864     TIP3     H2       HT       0.417000       1.00800           0
     25928 TIP3     2865     TIP3     OH2      OT      -0.834000       15.9994           0
     25929 TIP3     2865     TIP3     H1       HT       0.417000       1.00800           0
     25930 TIP3     2865     TIP3     H2       HT       0.417000       1.00800           0
     25931 TIP3     2866     TIP3     OH2      OT      -0.834000       15.9994           0
     25932 TIP3     2866     TIP3     H1       HT       0.417000       1.00800           0
     25933 TIP3     2866     TIP3     H2       HT       0.417000       1.00800           0
     25934 TIP3     2867     TIP3     OH2      OT      -0.834000       15.9994           0
     25935 TIP3     2867     TIP3     H1       HT       0.417000       1.00800           0
     25936 TIP3     2867     TIP3     H2       HT       0.417000       1.00800           0
     25937 TIP3     2868     TIP3     OH2      OT      -0.834000       15.9994           0
     25938 TIP3     2868     TIP3     H1       HT       0.417000       1.00800           0
     25939 TIP3     2868     TIP3     H2       HT       0.417000       1.00800           0
     25940 TIP3     2869     TIP3     OH2      OT      -0.834000       15.9994           0
     25941 TIP3     2869     TIP3     H1       HT       0.417000       1.00800           0
     25942 TIP3     2869     TIP3     H2       HT       0.417000       1.00800           0
     25943 TIP3     2870     TIP3     OH2      OT      -0.834000       15.9994           0
     25944 TIP3     2870     TIP3     H1       HT       0.417000       1.00800           0
     25945 TIP3     2870     TIP3     H2       HT       0.417000       1.00800           0
     25946 TIP3     2871     TIP3     OH2      OT      -0.834000       15.9994           0
     25947 TIP3     2871     TIP3     H1       HT       0.417000       1.00800           0
     25948 TIP3     2871     TIP3     H2       HT       0.417000       1.00800           0
     25949 TIP3     2872     TIP3     OH2      OT      -0.834000       15.9994           0
     25950 TIP3     2872     TIP3     H1       HT       0.417000       1.00800           0
     25951 TIP3     2872     TIP3     H2       HT       0.417000       1.00800           0
     25952 TIP3     2873     TIP3     OH2      OT      -0.834000       15.9994           0
     25953 TIP3     2873     TIP3     H1       HT       0.417000       1.00800           0
     25954 TIP3     2873     TIP3     H2       HT       0.417000       1.00800           0
     25955 TIP3     2874     TIP3     OH2      OT      -0.834000       15.9994           0
     25956 TIP3     2874     TIP3     H1       HT       0.417000       1.00800           0
     25957 TIP3     2874     TIP3     H2       HT       0.417000       1.00800           0
     25958 TIP3     2875     TIP3     OH2      OT      -0.834000       15.9994           0
     25959 TIP3     2875     TIP3     H1       HT       0.417000       1.00800           0
     25960 TIP3     2875     TIP3     H2       HT       0.417000       1.00800           0
     25961 TIP3     2876     TIP3     OH2      OT      -0.834000       15.9994           0
     25962 TIP3     2876     TIP3     H1       HT       0.417000       1.00800           0
     25963 TIP3     2876     TIP3     H2       HT       0.417000       1.00800           0
     25964 TIP3     2877     TIP3     OH2      OT      -0.834000       15.9994           0
     25965 TIP3     2877     TIP3     H1       HT       0.417000       1.00800           0
     25966 TIP3     2877     TIP3     H2       HT       0.417000       1.00800           0
     25967 TIP3     2878     TIP3     OH2      OT      -0.834000       15.9994           0
     25968 TIP3     2878     TIP3     H1       HT       0.417000       1.00800           0
     25969 TIP3     2878     TIP3     H2       HT       0.417000       1.00800           0
     25970 TIP3     2879     TIP3     OH2      OT      -0.834000       15.9994           0
     25971 TIP3     2879     TIP3     H1       HT       0.417000       1.00800           0
     25972 TIP3     2879     TIP3     H2       HT       0.417000       1.00800           0
     25973 TIP3     2880     TIP3     OH2      OT      -0.834000       15.9994           0
     25974 TIP3     2880     TIP3     H1       HT       0.417000       1.00800           0
     25975 TIP3     2880     TIP3     H2       HT       0.417000       1.00800           0
     25976 TIP3     2881     TIP3     OH2      OT      -0.834000       15.9994           0
     25977 TIP3     2881     TIP3     H1       HT       0.417000       1.00800           0
     25978 TIP3     2881     TIP3     H2       HT       0.417000       1.00800           0
     25979 TIP3     2882     TIP3     OH2      OT      -0.834000       15.9994           0
     25980 TIP3     2882     TIP3     H1       HT       0.417000       1.00800           0
     25981 TIP3     2882     TIP3     H2       HT       0.417000       1.00800           0
     25982 TIP3     2883     TIP3     OH2      OT      -0.834000       15.9994           0
     25983 TIP3     2883     TIP3     H1       HT       0.417000       1.00800           0
     25984 TIP3     2883     TIP3     H2       HT       0.417000       1.00800           0
     25985 TIP3     2884     TIP3     OH2      OT      -0.834000       15.9994           0
     25986 TIP3     2884     TIP3     H1       HT       0.417000       1.00800           0
     25987 TIP3     2884     TIP3     H2       HT       0.417000       1.00800           0
     25988 TIP3     2885     TIP3     OH2      OT      -0.834000       15.9994           0
     25989 TIP3     2885     TIP3     H1       HT       0.417000       1.00800           0
     25990 TIP3     2885     TIP3     H2       HT       0.417000       1.00800           0
     25991 TIP3     2886     TIP3     OH2      OT      -0.834000       15.9994           0
     25992 TIP3     2886     TIP3     H1       HT       0.417000       1.00800           0
     25993 TIP3     2886     TIP3     H2       HT       0.417000       1.00800           0
     25994 TIP3     2887     TIP3     OH2      OT      -0.834000       15.9994           0
     25995 TIP3     2887     TIP3     H1       HT       0.417000       1.00800           0
     25996 TIP3     2887     TIP3     H2       HT       0.417000       1.00800           0
     25997 TIP3     2888     TIP3     OH2      OT      -0.834000       15.9994           0
     25998 TIP3     2888     TIP3     H1       HT       0.417000       1.00800           0
     25999 TIP3     2888     TIP3     H2       HT       0.417000       1.00800           0
     26000 TIP3     2889     TIP3     OH2      OT      -0.834000       15.9994           0
     26001 TIP3     2889     TIP3     H1       HT       0.417000       1.00800           0
     26002 TIP3     2889     TIP3     H2       HT       0.417000       1.00800           0
     26003 TIP3     2890     TIP3     OH2      OT      -0.834000       15.9994           0
     26004 TIP3     2890     TIP3     H1       HT       0.417000       1.00800           0
     26005 TIP3     2890     TIP3     H2       HT       0.417000       1.00800           0
     26006 TIP3     2891     TIP3     OH2      OT      -0.834000       15.9994           0
     26007 TIP3     2891     TIP3     H1       HT       0.417000       1.00800           0
     26008 TIP3     2891     TIP3     H2       HT       0.417000       1.00800           0
     26009 TIP3     2892     TIP3     OH2      OT      -0.834000       15.9994           0
     26010 TIP3     2892     TIP3     H1       HT       0.417000       1.00800           0
     26011 TIP3     2892     TIP3     H2       HT       0.417000       1.00800           0
     26012 TIP3     2893     TIP3     OH2      OT      -0.834000       15.9994           0
     26013 TIP3     2893     TIP3     H1       HT       0.417000       1.00800           0
     26014 TIP3     2893     TIP3     H2       HT       0.417000       1.00800           0
     26015 TIP3     2894     TIP3     OH2      OT      -0.834000       15.9994           0
     26016 TIP3     2894     TIP3     H1       HT       0.417000       1.00800           0
     26017 TIP3     2894     TIP3     H2       HT       0.417000       1.00800           0
     26018 TIP3     2895     TIP3     OH2      OT      -0.834000       15.9994           0
     26019 TIP3     2895     TIP3     H1       HT       0.417000       1.00800           0
     26020 TIP3     2895     TIP3     H2       HT       0.417000       1.00800           0
     26021 TIP3     2896     TIP3     OH2      OT      -0.834000       15.9994           0
     26022 TIP3     2896     TIP3     H1       HT       0.417000       1.00800           0
     26023 TIP3     2896     TIP3     H2       HT       0.417000       1.00800           0
     26024 TIP3     2897     TIP3     OH2      OT      -0.834000       15.9994           0
     26025 TIP3     2897     TIP3     H1       HT       0.417000       1.00800           0
     26026 TIP3     2897     TIP3     H2       HT       0.417000       1.00800           0
     26027 TIP3     2898     TIP3     OH2      OT      -0.834000       15.9994           0
     26028 TIP3     2898     TIP3     H1       HT       0.417000       1.00800           0
     26029 TIP3     2898     TIP3     H2       HT       0.417000       1.00800           0
     26030 TIP3     2899     TIP3     OH2      OT      -0.834000       15.9994           0
     26031 TIP3     2899     TIP3     H1       HT       0.417000       1.00800           0
     26032 TIP3     2899     TIP3     H2       HT       0.417000       1.00800           0
     26033 TIP3     2900     TIP3     OH2      OT      -0.834000       15.9994           0
     26034 TIP3     2900     TIP3     H1       HT       0.417000       1.00800           0
     26035 TIP3     2900     TIP3     H2       HT       0.417000       1.00800           0
     26036 TIP3     2901     TIP3     OH2      OT      -0.834000       15.9994           0
     26037 TIP3     2901     TIP3     H1       HT       0.417000       1.00800           0
     26038 TIP3     2901     TIP3     H2       HT       0.417000       1.00800           0
     26039 TIP3     2902     TIP3     OH2      OT      -0.834000       15.9994           0
     26040 TIP3     2902     TIP3     H1       HT       0.417000       1.00800           0
     26041 TIP3     2902     TIP3     H2       HT       0.417000       1.00800           0
     26042 TIP3     2903     TIP3     OH2      OT      -0.834000       15.9994           0
     26043 TIP3     2903     TIP3     H1       HT       0.417000       1.00800           0
     26044 TIP3     2903     TIP3     H2       HT       0.417000       1.00800           0
     26045 TIP3     2904     TIP3     OH2      OT      -0.834000       15.9994           0
     26046 TIP3     2904     TIP3     H1       HT       0.417000       1.00800           0
     26047 TIP3     2904     TIP3     H2       HT       0.417000       1.00800           0
     26048 TIP3     2905     TIP3     OH2      OT      -0.834000       15.9994           0
     26049 TIP3     2905     TIP3     H1       HT       0.417000       1.00800           0
     26050 TIP3     2905     TIP3     H2       HT       0.417000       1.00800           0
     26051 TIP3     2906     TIP3     OH2      OT      -0.834000       15.9994           0
     26052 TIP3     2906     TIP3     H1       HT       0.417000       1.00800           0
     26053 TIP3     2906     TIP3     H2       HT       0.417000       1.00800           0
     26054 TIP3     2907     TIP3     OH2      OT      -0.834000       15.9994           0
     26055 TIP3     2907     TIP3     H1       HT       0.417000       1.00800           0
     26056 TIP3     2907     TIP3     H2       HT       0.417000       1.00800           0
     26057 TIP3     2908     TIP3     OH2      OT      -0.834000       15.9994           0
     26058 TIP3     2908     TIP3     H1       HT       0.417000       1.00800           0
     26059 TIP3     2908     TIP3     H2       HT       0.417000       1.00800           0
     26060 TIP3     2909     TIP3     OH2      OT      -0.834000       15.9994           0
     26061 TIP3     2909     TIP3     H1       HT       0.417000       1.00800           0
     26062 TIP3     2909     TIP3     H2       HT       0.417000       1.00800           0
     26063 TIP3     2910     TIP3     OH2      OT      -0.834000       15.9994           0
     26064 TIP3     2910     TIP3     H1       HT       0.417000       1.00800           0
     26065 TIP3     2910     TIP3     H2       HT       0.417000       1.00800           0
     26066 TIP3     2911     TIP3     OH2      OT      -0.834000       15.9994           0
     26067 TIP3     2911     TIP3     H1       HT       0.417000       1.00800           0
     26068 TIP3     2911     TIP3     H2       HT       0.417000       1.00800           0
     26069 TIP3     2912     TIP3     OH2      OT      -0.834000       15.9994           0
     26070 TIP3     2912     TIP3     H1       HT       0.417000       1.00800           0
     26071 TIP3     2912     TIP3     H2       HT       0.417000       1.00800           0
     26072 TIP3     2913     TIP3     OH2      OT      -0.834000       15.9994           0
     26073 TIP3     2913     TIP3     H1       HT       0.417000       1.00800           0
     26074 TIP3     2913     TIP3     H2       HT       0.417000       1.00800           0
     26075 TIP3     2914     TIP3     OH2      OT      -0.834000       15.9994           0
     26076 TIP3     2914     TIP3     H1       HT       0.417000       1.00800           0
     26077 TIP3     2914     TIP3     H2       HT       0.417000       1.00800           0
     26078 TIP3     2915     TIP3     OH2      OT      -0.834000       15.9994           0
     26079 TIP3     2915     TIP3     H1       HT       0.417000       1.00800           0
     26080 TIP3     2915     TIP3     H2       HT       0.417000       1.00800           0
     26081 TIP3     2916     TIP3     OH2      OT      -0.834000       15.9994           0
     26082 TIP3     2916     TIP3     H1       HT       0.417000       1.00800           0
     26083 TIP3     2916     TIP3     H2       HT       0.417000       1.00800           0
     26084 TIP3     2917     TIP3     OH2      OT      -0.834000       15.9994           0
     26085 TIP3     2917     TIP3     H1       HT       0.417000       1.00800           0
     26086 TIP3     2917     TIP3     H2       HT       0.417000       1.00800           0
     26087 TIP3     2918     TIP3     OH2      OT      -0.834000       15.9994           0
     26088 TIP3     2918     TIP3     H1       HT       0.417000       1.00800           0
     26089 TIP3     2918     TIP3     H2       HT       0.417000       1.00800           0
     26090 TIP3     2919     TIP3     OH2      OT      -0.834000       15.9994           0
     26091 TIP3     2919     TIP3     H1       HT       0.417000       1.00800           0
     26092 TIP3     2919     TIP3     H2       HT       0.417000       1.00800           0
     26093 TIP3     2920     TIP3     OH2      OT      -0.834000       15.9994           0
     26094 TIP3     2920     TIP3     H1       HT       0.417000       1.00800           0
     26095 TIP3     2920     TIP3     H2       HT       0.417000       1.00800           0
     26096 TIP3     2921     TIP3     OH2      OT      -0.834000       15.9994           0
     26097 TIP3     2921     TIP3     H1       HT       0.417000       1.00800           0
     26098 TIP3     2921     TIP3     H2       HT       0.417000       1.00800           0
     26099 TIP3     2922     TIP3     OH2      OT      -0.834000       15.9994           0
     26100 TIP3     2922     TIP3     H1       HT       0.417000       1.00800           0
     26101 TIP3     2922     TIP3     H2       HT       0.417000       1.00800           0
     26102 TIP3     2923     TIP3     OH2      OT      -0.834000       15.9994           0
     26103 TIP3     2923     TIP3     H1       HT       0.417000       1.00800           0
     26104 TIP3     2923     TIP3     H2       HT       0.417000       1.00800           0
     26105 TIP3     2924     TIP3     OH2      OT      -0.834000       15.9994           0
     26106 TIP3     2924     TIP3     H1       HT       0.417000       1.00800           0
     26107 TIP3     2924     TIP3     H2       HT       0.417000       1.00800           0
     26108 TIP3     2925     TIP3     OH2      OT      -0.834000       15.9994           0
     26109 TIP3     2925     TIP3     H1       HT       0.417000       1.00800           0
     26110 TIP3     2925     TIP3     H2       HT       0.417000       1.00800           0
     26111 TIP3     2926     TIP3     OH2      OT      -0.834000       15.9994           0
     26112 TIP3     2926     TIP3     H1       HT       0.417000       1.00800           0
     26113 TIP3     2926     TIP3     H2       HT       0.417000       1.00800           0
     26114 TIP3     2927     TIP3     OH2      OT      -0.834000       15.9994           0
     26115 TIP3     2927     TIP3     H1       HT       0.417000       1.00800           0
     26116 TIP3     2927     TIP3     H2       HT       0.417000       1.00800           0
     26117 TIP3     2928     TIP3     OH2      OT      -0.834000       15.9994           0
     26118 TIP3     2928     TIP3     H1       HT       0.417000       1.00800           0
     26119 TIP3     2928     TIP3     H2       HT       0.417000       1.00800           0
     26120 TIP3     2929     TIP3     OH2      OT      -0.834000       15.9994           0
     26121 TIP3     2929     TIP3     H1       HT       0.417000       1.00800           0
     26122 TIP3     2929     TIP3     H2       HT       0.417000       1.00800           0
     26123 TIP3     2930     TIP3     OH2      OT      -0.834000       15.9994           0
     26124 TIP3     2930     TIP3     H1       HT       0.417000       1.00800           0
     26125 TIP3     2930     TIP3     H2       HT       0.417000       1.00800           0
     26126 TIP3     2931     TIP3     OH2      OT      -0.834000       15.9994           0
     26127 TIP3     2931     TIP3     H1       HT       0.417000       1.00800           0
     26128 TIP3     2931     TIP3     H2       HT       0.417000       1.00800           0
     26129 TIP3     2932     TIP3     OH2      OT      -0.834000       15.9994           0
     26130 TIP3     2932     TIP3     H1       HT       0.417000       1.00800           0
     26131 TIP3     2932     TIP3     H2       HT       0.417000       1.00800           0
     26132 TIP3     2933     TIP3     OH2      OT      -0.834000       15.9994           0
     26133 TIP3     2933     TIP3     H1       HT       0.417000       1.00800           0
     26134 TIP3     2933     TIP3     H2       HT       0.417000       1.00800           0
     26135 TIP3     2934     TIP3     OH2      OT      -0.834000       15.9994           0
     26136 TIP3     2934     TIP3     H1       HT       0.417000       1.00800           0
     26137 TIP3     2934     TIP3     H2       HT       0.417000       1.00800           0
     26138 TIP3     2935     TIP3     OH2      OT      -0.834000       15.9994           0
     26139 TIP3     2935     TIP3     H1       HT       0.417000       1.00800           0
     26140 TIP3     2935     TIP3     H2       HT       0.417000       1.00800           0
     26141 TIP3     2936     TIP3     OH2      OT      -0.834000       15.9994           0
     26142 TIP3     2936     TIP3     H1       HT       0.417000       1.00800           0
     26143 TIP3     2936     TIP3     H2       HT       0.417000       1.00800           0
     26144 TIP3     2937     TIP3     OH2      OT      -0.834000       15.9994           0
     26145 TIP3     2937     TIP3     H1       HT       0.417000       1.00800           0
     26146 TIP3     2937     TIP3     H2       HT       0.417000       1.00800           0
     26147 TIP3     2938     TIP3     OH2      OT      -0.834000       15.9994           0
     26148 TIP3     2938     TIP3     H1       HT       0.417000       1.00800           0
     26149 TIP3     2938     TIP3     H2       HT       0.417000       1.00800           0
     26150 TIP3     2939     TIP3     OH2      OT      -0.834000       15.9994           0
     26151 TIP3     2939     TIP3     H1       HT       0.417000       1.00800           0
     26152 TIP3     2939     TIP3     H2       HT       0.417000       1.00800           0
     26153 TIP3     2940     TIP3     OH2      OT      -0.834000       15.9994           0
     26154 TIP3     2940     TIP3     H1       HT       0.417000       1.00800           0
     26155 TIP3     2940     TIP3     H2       HT       0.417000       1.00800           0
     26156 TIP3     2941     TIP3     OH2      OT      -0.834000       15.9994           0
     26157 TIP3     2941     TIP3     H1       HT       0.417000       1.00800           0
     26158 TIP3     2941     TIP3     H2       HT       0.417000       1.00800           0
     26159 TIP3     2942     TIP3     OH2      OT      -0.834000       15.9994           0
     26160 TIP3     2942     TIP3     H1       HT       0.417000       1.00800           0
     26161 TIP3     2942     TIP3     H2       HT       0.417000       1.00800           0
     26162 TIP3     2943     TIP3     OH2      OT      -0.834000       15.9994           0
     26163 TIP3     2943     TIP3     H1       HT       0.417000       1.00800           0
     26164 TIP3     2943     TIP3     H2       HT       0.417000       1.00800           0
     26165 TIP3     2944     TIP3     OH2      OT      -0.834000       15.9994           0
     26166 TIP3     2944     TIP3     H1       HT       0.417000       1.00800           0
     26167 TIP3     2944     TIP3     H2       HT       0.417000       1.00800           0
     26168 TIP3     2945     TIP3     OH2      OT      -0.834000       15.9994           0
     26169 TIP3     2945     TIP3     H1       HT       0.417000       1.00800           0
     26170 TIP3     2945     TIP3     H2       HT       0.417000       1.00800           0
     26171 TIP3     2946     TIP3     OH2      OT      -0.834000       15.9994           0
     26172 TIP3     2946     TIP3     H1       HT       0.417000       1.00800           0
     26173 TIP3     2946     TIP3     H2       HT       0.417000       1.00800           0
     26174 TIP3     2947     TIP3     OH2      OT      -0.834000       15.9994           0
     26175 TIP3     2947     TIP3     H1       HT       0.417000       1.00800           0
     26176 TIP3     2947     TIP3     H2       HT       0.417000       1.00800           0
     26177 TIP3     2948     TIP3     OH2      OT      -0.834000       15.9994           0
     26178 TIP3     2948     TIP3     H1       HT       0.417000       1.00800           0
     26179 TIP3     2948     TIP3     H2       HT       0.417000       1.00800           0
     26180 TIP3     2949     TIP3     OH2      OT      -0.834000       15.9994           0
     26181 TIP3     2949     TIP3     H1       HT       0.417000       1.00800           0
     26182 TIP3     2949     TIP3     H2       HT       0.417000       1.00800           0
     26183 TIP3     2950     TIP3     OH2      OT      -0.834000       15.9994           0
     26184 TIP3     2950     TIP3     H1       HT       0.417000       1.00800           0
     26185 TIP3     2950     TIP3     H2       HT       0.417000       1.00800           0
     26186 TIP3     2951     TIP3     OH2      OT      -0.834000       15.9994           0
     26187 TIP3     2951     TIP3     H1       HT       0.417000       1.00800           0
     26188 TIP3     2951     TIP3     H2       HT       0.417000       1.00800           0
     26189 TIP3     2952     TIP3     OH2      OT      -0.834000       15.9994           0
     26190 TIP3     2952     TIP3     H1       HT       0.417000       1.00800           0
     26191 TIP3     2952     TIP3     H2       HT       0.417000       1.00800           0
     26192 TIP3     2953     TIP3     OH2      OT      -0.834000       15.9994           0
     26193 TIP3     2953     TIP3     H1       HT       0.417000       1.00800           0
     26194 TIP3     2953     TIP3     H2       HT       0.417000       1.00800           0
     26195 TIP3     2954     TIP3     OH2      OT      -0.834000       15.9994           0
     26196 TIP3     2954     TIP3     H1       HT       0.417000       1.00800           0
     26197 TIP3     2954     TIP3     H2       HT       0.417000       1.00800           0
     26198 TIP3     2955     TIP3     OH2      OT      -0.834000       15.9994           0
     26199 TIP3     2955     TIP3     H1       HT       0.417000       1.00800           0
     26200 TIP3     2955     TIP3     H2       HT       0.417000       1.00800           0
     26201 TIP3     2956     TIP3     OH2      OT      -0.834000       15.9994           0
     26202 TIP3     2956     TIP3     H1       HT       0.417000       1.00800           0
     26203 TIP3     2956     TIP3     H2       HT       0.417000       1.00800           0
     26204 TIP3     2957     TIP3     OH2      OT      -0.834000       15.9994           0
     26205 TIP3     2957     TIP3     H1       HT       0.417000       1.00800           0
     26206 TIP3     2957     TIP3     H2       HT       0.417000       1.00800           0
     26207 TIP3     2958     TIP3     OH2      OT      -0.834000       15.9994           0
     26208 TIP3     2958     TIP3     H1       HT       0.417000       1.00800           0
     26209 TIP3     2958     TIP3     H2       HT       0.417000       1.00800           0
     26210 TIP3     2959     TIP3     OH2      OT      -0.834000       15.9994           0
     26211 TIP3     2959     TIP3     H1       HT       0.417000       1.00800           0
     26212 TIP3     2959     TIP3     H2       HT       0.417000       1.00800           0
     26213 TIP3     2960     TIP3     OH2      OT      -0.834000       15.9994           0
     26214 TIP3     2960     TIP3     H1       HT       0.417000       1.00800           0
     26215 TIP3     2960     TIP3     H2       HT       0.417000       1.00800           0
     26216 TIP3     2961     TIP3     OH2      OT      -0.834000       15.9994           0
     26217 TIP3     2961     TIP3     H1       HT       0.417000       1.00800           0
     26218 TIP3     2961     TIP3     H2       HT       0.417000       1.00800           0
     26219 TIP3     2962     TIP3     OH2      OT      -0.834000       15.9994           0
     26220 TIP3     2962     TIP3     H1       HT       0.417000       1.00800           0
     26221 TIP3     2962     TIP3     H2       HT       0.417000       1.00800           0
     26222 TIP3     2963     TIP3     OH2      OT      -0.834000       15.9994           0
     26223 TIP3     2963     TIP3     H1       HT       0.417000       1.00800           0
     26224 TIP3     2963     TIP3     H2       HT       0.417000       1.00800           0
     26225 TIP3     2964     TIP3     OH2      OT      -0.834000       15.9994           0
     26226 TIP3     2964     TIP3     H1       HT       0.417000       1.00800           0
     26227 TIP3     2964     TIP3     H2       HT       0.417000       1.00800           0
     26228 TIP3     2965     TIP3     OH2      OT      -0.834000       15.9994           0
     26229 TIP3     2965     TIP3     H1       HT       0.417000       1.00800           0
     26230 TIP3     2965     TIP3     H2       HT       0.417000       1.00800           0
     26231 TIP3     2966     TIP3     OH2      OT      -0.834000       15.9994           0
     26232 TIP3     2966     TIP3     H1       HT       0.417000       1.00800           0
     26233 TIP3     2966     TIP3     H2       HT       0.417000       1.00800           0
     26234 TIP3     2967     TIP3     OH2      OT      -0.834000       15.9994           0
     26235 TIP3     2967     TIP3     H1       HT       0.417000       1.00800           0
     26236 TIP3     2967     TIP3     H2       HT       0.417000       1.00800           0
     26237 TIP3     2968     TIP3     OH2      OT      -0.834000       15.9994           0
     26238 TIP3     2968     TIP3     H1       HT       0.417000       1.00800           0
     26239 TIP3     2968     TIP3     H2       HT       0.417000       1.00800           0
     26240 TIP3     2969     TIP3     OH2      OT      -0.834000       15.9994           0
     26241 TIP3     2969     TIP3     H1       HT       0.417000       1.00800           0
     26242 TIP3     2969     TIP3     H2       HT       0.417000       1.00800           0
     26243 TIP3     2970     TIP3     OH2      OT      -0.834000       15.9994           0
     26244 TIP3     2970     TIP3     H1       HT       0.417000       1.00800           0
     26245 TIP3     2970     TIP3     H2       HT       0.417000       1.00800           0
     26246 TIP3     2971     TIP3     OH2      OT      -0.834000       15.9994           0
     26247 TIP3     2971     TIP3     H1       HT       0.417000       1.00800           0
     26248 TIP3     2971     TIP3     H2       HT       0.417000       1.00800           0
     26249 TIP3     2972     TIP3     OH2      OT      -0.834000       15.9994           0
     26250 TIP3     2972     TIP3     H1       HT       0.417000       1.00800           0
     26251 TIP3     2972     TIP3     H2       HT       0.417000       1.00800           0
     26252 TIP3     2973     TIP3     OH2      OT      -0.834000       15.9994           0
     26253 TIP3     2973     TIP3     H1       HT       0.417000       1.00800           0
     26254 TIP3     2973     TIP3     H2       HT       0.417000       1.00800           0
     26255 TIP3     2974     TIP3     OH2      OT      -0.834000       15.9994           0
     26256 TIP3     2974     TIP3     H1       HT       0.417000       1.00800           0
     26257 TIP3     2974     TIP3     H2       HT       0.417000       1.00800           0
     26258 TIP3     2975     TIP3     OH2      OT      -0.834000       15.9994           0
     26259 TIP3     2975     TIP3     H1       HT       0.417000       1.00800           0
     26260 TIP3     2975     TIP3     H2       HT       0.417000       1.00800           0
     26261 TIP3     2976     TIP3     OH2      OT      -0.834000       15.9994           0
     26262 TIP3     2976     TIP3     H1       HT       0.417000       1.00800           0
     26263 TIP3     2976     TIP3     H2       HT       0.417000       1.00800           0
     26264 TIP3     2977     TIP3     OH2      OT      -0.834000       15.9994           0
     26265 TIP3     2977     TIP3     H1       HT       0.417000       1.00800           0
     26266 TIP3     2977     TIP3     H2       HT       0.417000       1.00800           0
     26267 TIP3     2978     TIP3     OH2      OT      -0.834000       15.9994           0
     26268 TIP3     2978     TIP3     H1       HT       0.417000       1.00800           0
     26269 TIP3     2978     TIP3     H2       HT       0.417000       1.00800           0
     26270 TIP3     2979     TIP3     OH2      OT      -0.834000       15.9994           0
     26271 TIP3     2979     TIP3     H1       HT       0.417000       1.00800           0
     26272 TIP3     2979     TIP3     H2       HT       0.417000       1.00800           0
     26273 TIP3     2980     TIP3     OH2      OT      -0.834000       15.9994           0
     26274 TIP3     2980     TIP3     H1       HT       0.417000       1.00800           0
     26275 TIP3     2980     TIP3     H2       HT       0.417000       1.00800           0
     26276 TIP3     2981     TIP3     OH2      OT      -0.834000       15.9994           0
     26277 TIP3     2981     TIP3     H1       HT       0.417000       1.00800           0
     26278 TIP3     2981     TIP3     H2       HT       0.417000       1.00800           0
     26279 TIP3     2982     TIP3     OH2      OT      -0.834000       15.9994           0
     26280 TIP3     2982     TIP3     H1       HT       0.417000       1.00800           0
     26281 TIP3     2982     TIP3     H2       HT       0.417000       1.00800           0
     26282 TIP3     2983     TIP3     OH2      OT      -0.834000       15.9994           0
     26283 TIP3     2983     TIP3     H1       HT       0.417000       1.00800           0
     26284 TIP3     2983     TIP3     H2       HT       0.417000       1.00800           0
     26285 TIP3     2984     TIP3     OH2      OT      -0.834000       15.9994           0
     26286 TIP3     2984     TIP3     H1       HT       0.417000       1.00800           0
     26287 TIP3     2984     TIP3     H2       HT       0.417000       1.00800           0
     26288 TIP3     2985     TIP3     OH2      OT      -0.834000       15.9994           0
     26289 TIP3     2985     TIP3     H1       HT       0.417000       1.00800           0
     26290 TIP3     2985     TIP3     H2       HT       0.417000       1.00800           0
     26291 TIP3     2986     TIP3     OH2      OT      -0.834000       15.9994           0
     26292 TIP3     2986     TIP3     H1       HT       0.417000       1.00800           0
     26293 TIP3     2986     TIP3     H2       HT       0.417000       1.00800           0
     26294 TIP3     2987     TIP3     OH2      OT      -0.834000       15.9994           0
     26295 TIP3     2987     TIP3     H1       HT       0.417000       1.00800           0
     26296 TIP3     2987     TIP3     H2       HT       0.417000       1.00800           0
     26297 TIP3     2988     TIP3     OH2      OT      -0.834000       15.9994           0
     26298 TIP3     2988     TIP3     H1       HT       0.417000       1.00800           0
     26299 TIP3     2988     TIP3     H2       HT       0.417000       1.00800           0
     26300 TIP3     2989     TIP3     OH2      OT      -0.834000       15.9994           0
     26301 TIP3     2989     TIP3     H1       HT       0.417000       1.00800           0
     26302 TIP3     2989     TIP3     H2       HT       0.417000       1.00800           0
     26303 TIP3     2990     TIP3     OH2      OT      -0.834000       15.9994           0
     26304 TIP3     2990     TIP3     H1       HT       0.417000       1.00800           0
     26305 TIP3     2990     TIP3     H2       HT       0.417000       1.00800           0
     26306 TIP3     2991     TIP3     OH2      OT      -0.834000       15.9994           0
     26307 TIP3     2991     TIP3     H1       HT       0.417000       1.00800           0
     26308 TIP3     2991     TIP3     H2       HT       0.417000       1.00800           0
     26309 TIP3     2992     TIP3     OH2      OT      -0.834000       15.9994           0
     26310 TIP3     2992     TIP3     H1       HT       0.417000       1.00800           0
     26311 TIP3     2992     TIP3     H2       HT       0.417000       1.00800           0
     26312 TIP3     2993     TIP3     OH2      OT      -0.834000       15.9994           0
     26313 TIP3     2993     TIP3     H1       HT       0.417000       1.00800           0
     26314 TIP3     2993     TIP3     H2       HT       0.417000       1.00800           0
     26315 TIP3     2994     TIP3     OH2      OT      -0.834000       15.9994           0
     26316 TIP3     2994     TIP3     H1       HT       0.417000       1.00800           0
     26317 TIP3     2994     TIP3     H2       HT       0.417000       1.00800           0
     26318 TIP3     2995     TIP3     OH2      OT      -0.834000       15.9994           0
     26319 TIP3     2995     TIP3     H1       HT       0.417000       1.00800           0
     26320 TIP3     2995     TIP3     H2       HT       0.417000       1.00800           0
     26321 TIP3     2996     TIP3     OH2      OT      -0.834000       15.9994           0
     26322 TIP3     2996     TIP3     H1       HT       0.417000       1.00800           0
     26323 TIP3     2996     TIP3     H2       HT       0.417000       1.00800           0
     26324 TIP3     2997     TIP3     OH2      OT      -0.834000       15.9994           0
     26325 TIP3     2997     TIP3     H1       HT       0.417000       1.00800           0
     26326 TIP3     2997     TIP3     H2       HT       0.417000       1.00800           0
     26327 TIP3     2998     TIP3     OH2      OT      -0.834000       15.9994           0
     26328 TIP3     2998     TIP3     H1       HT       0.417000       1.00800           0
     26329 TIP3     2998     TIP3     H2       HT       0.417000       1.00800           0
     26330 TIP3     2999     TIP3     OH2      OT      -0.834000       15.9994           0
     26331 TIP3     2999     TIP3     H1       HT       0.417000       1.00800           0
     26332 TIP3     2999     TIP3     H2       HT       0.417000       1.00800           0
     26333 TIP3     3000     TIP3     OH2      OT      -0.834000       15.9994           0
     26334 TIP3     3000     TIP3     H1       HT       0.417000       1.00800           0
     26335 TIP3     3000     TIP3     H2       HT       0.417000       1.00800           0
     26336 TIP3     3001     TIP3     OH2      OT      -0.834000       15.9994           0
     26337 TIP3     3001     TIP3     H1       HT       0.417000       1.00800           0
     26338 TIP3     3001     TIP3     H2       HT       0.417000       1.00800           0
     26339 TIP3     3002     TIP3     OH2      OT      -0.834000       15.9994           0
     26340 TIP3     3002     TIP3     H1       HT       0.417000       1.00800           0
     26341 TIP3     3002     TIP3     H2       HT       0.417000       1.00800           0
     26342 TIP3     3003     TIP3     OH2      OT      -0.834000       15.9994           0
     26343 TIP3     3003     TIP3     H1       HT       0.417000       1.00800           0
     26344 TIP3     3003     TIP3     H2       HT       0.417000       1.00800           0
     26345 TIP3     3004     TIP3     OH2      OT      -0.834000       15.9994           0
     26346 TIP3     3004     TIP3     H1       HT       0.417000       1.00800           0
     26347 TIP3     3004     TIP3     H2       HT       0.417000       1.00800           0
     26348 TIP3     3005     TIP3     OH2      OT      -0.834000       15.9994           0
     26349 TIP3     3005     TIP3     H1       HT       0.417000       1.00800           0
     26350 TIP3     3005     TIP3     H2       HT       0.417000       1.00800           0
     26351 TIP3     3006     TIP3     OH2      OT      -0.834000       15.9994           0
     26352 TIP3     3006     TIP3     H1       HT       0.417000       1.00800           0
     26353 TIP3     3006     TIP3     H2       HT       0.417000       1.00800           0
     26354 TIP3     3007     TIP3     OH2      OT      -0.834000       15.9994           0
     26355 TIP3     3007     TIP3     H1       HT       0.417000       1.00800           0
     26356 TIP3     3007     TIP3     H2       HT       0.417000       1.00800           0
     26357 TIP3     3008     TIP3     OH2      OT      -0.834000       15.9994           0
     26358 TIP3     3008     TIP3     H1       HT       0.417000       1.00800           0
     26359 TIP3     3008     TIP3     H2       HT       0.417000       1.00800           0
     26360 TIP3     3009     TIP3     OH2      OT      -0.834000       15.9994           0
     26361 TIP3     3009     TIP3     H1       HT       0.417000       1.00800           0
     26362 TIP3     3009     TIP3     H2       HT       0.417000       1.00800           0
     26363 TIP3     3010     TIP3     OH2      OT      -0.834000       15.9994           0
     26364 TIP3     3010     TIP3     H1       HT       0.417000       1.00800           0
     26365 TIP3     3010     TIP3     H2       HT       0.417000       1.00800           0
     26366 TIP3     3011     TIP3     OH2      OT      -0.834000       15.9994           0
     26367 TIP3     3011     TIP3     H1       HT       0.417000       1.00800           0
     26368 TIP3     3011     TIP3     H2       HT       0.417000       1.00800           0
     26369 TIP3     3012     TIP3     OH2      OT      -0.834000       15.9994           0
     26370 TIP3     3012     TIP3     H1       HT       0.417000       1.00800           0
     26371 TIP3     3012     TIP3     H2       HT       0.417000       1.00800           0
     26372 TIP3     3013     TIP3     OH2      OT      -0.834000       15.9994           0
     26373 TIP3     3013     TIP3     H1       HT       0.417000       1.00800           0
     26374 TIP3     3013     TIP3     H2       HT       0.417000       1.00800           0
     26375 TIP3     3014     TIP3     OH2      OT      -0.834000       15.9994           0
     26376 TIP3     3014     TIP3     H1       HT       0.417000       1.00800           0
     26377 TIP3     3014     TIP3     H2       HT       0.417000       1.00800           0
     26378 TIP3     3015     TIP3     OH2      OT      -0.834000       15.9994           0
     26379 TIP3     3015     TIP3     H1       HT       0.417000       1.00800           0
     26380 TIP3     3015     TIP3     H2       HT       0.417000       1.00800           0
     26381 TIP3     3016     TIP3     OH2      OT      -0.834000       15.9994           0
     26382 TIP3     3016     TIP3     H1       HT       0.417000       1.00800           0
     26383 TIP3     3016     TIP3     H2       HT       0.417000       1.00800           0
     26384 TIP3     3017     TIP3     OH2      OT      -0.834000       15.9994           0
     26385 TIP3     3017     TIP3     H1       HT       0.417000       1.00800           0
     26386 TIP3     3017     TIP3     H2       HT       0.417000       1.00800           0
     26387 TIP3     3018     TIP3     OH2      OT      -0.834000       15.9994           0
     26388 TIP3     3018     TIP3     H1       HT       0.417000       1.00800           0
     26389 TIP3     3018     TIP3     H2       HT       0.417000       1.00800           0
     26390 TIP3     3019     TIP3     OH2      OT      -0.834000       15.9994           0
     26391 TIP3     3019     TIP3     H1       HT       0.417000       1.00800           0
     26392 TIP3     3019     TIP3     H2       HT       0.417000       1.00800           0
     26393 TIP3     3020     TIP3     OH2      OT      -0.834000       15.9994           0
     26394 TIP3     3020     TIP3     H1       HT       0.417000       1.00800           0
     26395 TIP3     3020     TIP3     H2       HT       0.417000       1.00800           0
     26396 TIP3     3021     TIP3     OH2      OT      -0.834000       15.9994           0
     26397 TIP3     3021     TIP3     H1       HT       0.417000       1.00800           0
     26398 TIP3     3021     TIP3     H2       HT       0.417000       1.00800           0
     26399 TIP3     3022     TIP3     OH2      OT      -0.834000       15.9994           0
     26400 TIP3     3022     TIP3     H1       HT       0.417000       1.00800           0
     26401 TIP3     3022     TIP3     H2       HT       0.417000       1.00800           0
     26402 TIP3     3023     TIP3     OH2      OT      -0.834000       15.9994           0
     26403 TIP3     3023     TIP3     H1       HT       0.417000       1.00800           0
     26404 TIP3     3023     TIP3     H2       HT       0.417000       1.00800           0
     26405 TIP3     3024     TIP3     OH2      OT      -0.834000       15.9994           0
     26406 TIP3     3024     TIP3     H1       HT       0.417000       1.00800           0
     26407 TIP3     3024     TIP3     H2       HT       0.417000       1.00800           0
     26408 TIP3     3025     TIP3     OH2      OT      -0.834000       15.9994           0
     26409 TIP3     3025     TIP3     H1       HT       0.417000       1.00800           0
     26410 TIP3     3025     TIP3     H2       HT       0.417000       1.00800           0
     26411 TIP3     3026     TIP3     OH2      OT      -0.834000       15.9994           0
     26412 TIP3     3026     TIP3     H1       HT       0.417000       1.00800           0
     26413 TIP3     3026     TIP3     H2       HT       0.417000       1.00800           0
     26414 TIP3     3027     TIP3     OH2      OT      -0.834000       15.9994           0
     26415 TIP3     3027     TIP3     H1       HT       0.417000       1.00800           0
     26416 TIP3     3027     TIP3     H2       HT       0.417000       1.00800           0
     26417 TIP3     3028     TIP3     OH2      OT      -0.834000       15.9994           0
     26418 TIP3     3028     TIP3     H1       HT       0.417000       1.00800           0
     26419 TIP3     3028     TIP3     H2       HT       0.417000       1.00800           0
     26420 TIP3     3029     TIP3     OH2      OT      -0.834000       15.9994           0
     26421 TIP3     3029     TIP3     H1       HT       0.417000       1.00800           0
     26422 TIP3     3029     TIP3     H2       HT       0.417000       1.00800           0
     26423 TIP3     3030     TIP3     OH2      OT      -0.834000       15.9994           0
     26424 TIP3     3030     TIP3     H1       HT       0.417000       1.00800           0
     26425 TIP3     3030     TIP3     H2       HT       0.417000       1.00800           0
     26426 TIP3     3031     TIP3     OH2      OT      -0.834000       15.9994           0
     26427 TIP3     3031     TIP3     H1       HT       0.417000       1.00800           0
     26428 TIP3     3031     TIP3     H2       HT       0.417000       1.00800           0
     26429 TIP3     3032     TIP3     OH2      OT      -0.834000       15.9994           0
     26430 TIP3     3032     TIP3     H1       HT       0.417000       1.00800           0
     26431 TIP3     3032     TIP3     H2       HT       0.417000       1.00800           0
     26432 TIP3     3033     TIP3     OH2      OT      -0.834000       15.9994           0
     26433 TIP3     3033     TIP3     H1       HT       0.417000       1.00800           0
     26434 TIP3     3033     TIP3     H2       HT       0.417000       1.00800           0
     26435 TIP3     3034     TIP3     OH2      OT      -0.834000       15.9994           0
     26436 TIP3     3034     TIP3     H1       HT       0.417000       1.00800           0
     26437 TIP3     3034     TIP3     H2       HT       0.417000       1.00800           0
     26438 TIP3     3035     TIP3     OH2      OT      -0.834000       15.9994           0
     26439 TIP3     3035     TIP3     H1       HT       0.417000       1.00800           0
     26440 TIP3     3035     TIP3     H2       HT       0.417000       1.00800           0
     26441 TIP3     3036     TIP3     OH2      OT      -0.834000       15.9994           0
     26442 TIP3     3036     TIP3     H1       HT       0.417000       1.00800           0
     26443 TIP3     3036     TIP3     H2       HT       0.417000       1.00800           0
     26444 TIP3     3037     TIP3     OH2      OT      -0.834000       15.9994           0
     26445 TIP3     3037     TIP3     H1       HT       0.417000       1.00800           0
     26446 TIP3     3037     TIP3     H2       HT       0.417000       1.00800           0
     26447 TIP3     3038     TIP3     OH2      OT      -0.834000       15.9994           0
     26448 TIP3     3038     TIP3     H1       HT       0.417000       1.00800           0
     26449 TIP3     3038     TIP3     H2       HT       0.417000       1.00800           0
     26450 TIP3     3039     TIP3     OH2      OT      -0.834000       15.9994           0
     26451 TIP3     3039     TIP3     H1       HT       0.417000       1.00800           0
     26452 TIP3     3039     TIP3     H2       HT       0.417000       1.00800           0
     26453 TIP3     3040     TIP3     OH2      OT      -0.834000       15.9994           0
     26454 TIP3     3040     TIP3     H1       HT       0.417000       1.00800           0
     26455 TIP3     3040     TIP3     H2       HT       0.417000       1.00800           0
     26456 TIP3     3041     TIP3     OH2      OT      -0.834000       15.9994           0
     26457 TIP3     3041     TIP3     H1       HT       0.417000       1.00800           0
     26458 TIP3     3041     TIP3     H2       HT       0.417000       1.00800           0
     26459 TIP3     3042     TIP3     OH2      OT      -0.834000       15.9994           0
     26460 TIP3     3042     TIP3     H1       HT       0.417000       1.00800           0
     26461 TIP3     3042     TIP3     H2       HT       0.417000       1.00800           0
     26462 TIP3     3043     TIP3     OH2      OT      -0.834000       15.9994           0
     26463 TIP3     3043     TIP3     H1       HT       0.417000       1.00800           0
     26464 TIP3     3043     TIP3     H2       HT       0.417000       1.00800           0
     26465 TIP3     3044     TIP3     OH2      OT      -0.834000       15.9994           0
     26466 TIP3     3044     TIP3     H1       HT       0.417000       1.00800           0
     26467 TIP3     3044     TIP3     H2       HT       0.417000       1.00800           0
     26468 TIP3     3045     TIP3     OH2      OT      -0.834000       15.9994           0
     26469 TIP3     3045     TIP3     H1       HT       0.417000       1.00800           0
     26470 TIP3     3045     TIP3     H2       HT       0.417000       1.00800           0
     26471 TIP3     3046     TIP3     OH2      OT      -0.834000       15.9994           0
     26472 TIP3     3046     TIP3     H1       HT       0.417000       1.00800           0
     26473 TIP3     3046     TIP3     H2       HT       0.417000       1.00800           0
     26474 TIP3     3047     TIP3     OH2      OT      -0.834000       15.9994           0
     26475 TIP3     3047     TIP3     H1       HT       0.417000       1.00800           0
     26476 TIP3     3047     TIP3     H2       HT       0.417000       1.00800           0
     26477 TIP3     3048     TIP3     OH2      OT      -0.834000       15.9994           0
     26478 TIP3     3048     TIP3     H1       HT       0.417000       1.00800           0
     26479 TIP3     3048     TIP3     H2       HT       0.417000       1.00800           0
     26480 TIP3     3049     TIP3     OH2      OT      -0.834000       15.9994           0
     26481 TIP3     3049     TIP3     H1       HT       0.417000       1.00800           0
     26482 TIP3     3049     TIP3     H2       HT       0.417000       1.00800           0
     26483 TIP3     3050     TIP3     OH2      OT      -0.834000       15.9994           0
     26484 TIP3     3050     TIP3     H1       HT       0.417000       1.00800           0
     26485 TIP3     3050     TIP3     H2       HT       0.417000       1.00800           0
     26486 TIP3     3051     TIP3     OH2      OT      -0.834000       15.9994           0
     26487 TIP3     3051     TIP3     H1       HT       0.417000       1.00800           0
     26488 TIP3     3051     TIP3     H2       HT       0.417000       1.00800           0
     26489 TIP3     3052     TIP3     OH2      OT      -0.834000       15.9994           0
     26490 TIP3     3052     TIP3     H1       HT       0.417000       1.00800           0
     26491 TIP3     3052     TIP3     H2       HT       0.417000       1.00800           0
     26492 TIP3     3053     TIP3     OH2      OT      -0.834000       15.9994           0
     26493 TIP3     3053     TIP3     H1       HT       0.417000       1.00800           0
     26494 TIP3     3053     TIP3     H2       HT       0.417000       1.00800           0
     26495 TIP3     3054     TIP3     OH2      OT      -0.834000       15.9994           0
     26496 TIP3     3054     TIP3     H1       HT       0.417000       1.00800           0
     26497 TIP3     3054     TIP3     H2       HT       0.417000       1.00800           0
     26498 TIP3     3055     TIP3     OH2      OT      -0.834000       15.9994           0
     26499 TIP3     3055     TIP3     H1       HT       0.417000       1.00800           0
     26500 TIP3     3055     TIP3     H2       HT       0.417000       1.00800           0
     26501 TIP3     3056     TIP3     OH2      OT      -0.834000       15.9994           0
     26502 TIP3     3056     TIP3     H1       HT       0.417000       1.00800           0
     26503 TIP3     3056     TIP3     H2       HT       0.417000       1.00800           0
     26504 TIP3     3057     TIP3     OH2      OT      -0.834000       15.9994           0
     26505 TIP3     3057     TIP3     H1       HT       0.417000       1.00800           0
     26506 TIP3     3057     TIP3     H2       HT       0.417000       1.00800           0
     26507 TIP3     3058     TIP3     OH2      OT      -0.834000       15.9994           0
     26508 TIP3     3058     TIP3     H1       HT       0.417000       1.00800           0
     26509 TIP3     3058     TIP3     H2       HT       0.417000       1.00800           0
     26510 TIP3     3059     TIP3     OH2      OT      -0.834000       15.9994           0
     26511 TIP3     3059     TIP3     H1       HT       0.417000       1.00800           0
     26512 TIP3     3059     TIP3     H2       HT       0.417000       1.00800           0
     26513 TIP3     3060     TIP3     OH2      OT      -0.834000       15.9994           0
     26514 TIP3     3060     TIP3     H1       HT       0.417000       1.00800           0
     26515 TIP3     3060     TIP3     H2       HT       0.417000       1.00800           0
     26516 TIP3     3061     TIP3     OH2      OT      -0.834000       15.9994           0
     26517 TIP3     3061     TIP3     H1       HT       0.417000       1.00800           0
     26518 TIP3     3061     TIP3     H2       HT       0.417000       1.00800           0
     26519 TIP3     3062     TIP3     OH2      OT      -0.834000       15.9994           0
     26520 TIP3     3062     TIP3     H1       HT       0.417000       1.00800           0
     26521 TIP3     3062     TIP3     H2       HT       0.417000       1.00800           0
     26522 TIP3     3063     TIP3     OH2      OT      -0.834000       15.9994           0
     26523 TIP3     3063     TIP3     H1       HT       0.417000       1.00800           0
     26524 TIP3     3063     TIP3     H2       HT       0.417000       1.00800           0
     26525 TIP3     3064     TIP3     OH2      OT      -0.834000       15.9994           0
     26526 TIP3     3064     TIP3     H1       HT       0.417000       1.00800           0
     26527 TIP3     3064     TIP3     H2       HT       0.417000       1.00800           0
     26528 TIP3     3065     TIP3     OH2      OT      -0.834000       15.9994           0
     26529 TIP3     3065     TIP3     H1       HT       0.417000       1.00800           0
     26530 TIP3     3065     TIP3     H2       HT       0.417000       1.00800           0
     26531 TIP3     3066     TIP3     OH2      OT      -0.834000       15.9994           0
     26532 TIP3     3066     TIP3     H1       HT       0.417000       1.00800           0
     26533 TIP3     3066     TIP3     H2       HT       0.417000       1.00800           0
     26534 TIP3     3067     TIP3     OH2      OT      -0.834000       15.9994           0
     26535 TIP3     3067     TIP3     H1       HT       0.417000       1.00800           0
     26536 TIP3     3067     TIP3     H2       HT       0.417000       1.00800           0
     26537 TIP3     3068     TIP3     OH2      OT      -0.834000       15.9994           0
     26538 TIP3     3068     TIP3     H1       HT       0.417000       1.00800           0
     26539 TIP3     3068     TIP3     H2       HT       0.417000       1.00800           0
     26540 TIP3     3069     TIP3     OH2      OT      -0.834000       15.9994           0
     26541 TIP3     3069     TIP3     H1       HT       0.417000       1.00800           0
     26542 TIP3     3069     TIP3     H2       HT       0.417000       1.00800           0
     26543 TIP3     3070     TIP3     OH2      OT      -0.834000       15.9994           0
     26544 TIP3     3070     TIP3     H1       HT       0.417000       1.00800           0
     26545 TIP3     3070     TIP3     H2       HT       0.417000       1.00800           0
     26546 TIP3     3071     TIP3     OH2      OT      -0.834000       15.9994           0
     26547 TIP3     3071     TIP3     H1       HT       0.417000       1.00800           0
     26548 TIP3     3071     TIP3     H2       HT       0.417000       1.00800           0
     26549 TIP3     3072     TIP3     OH2      OT      -0.834000       15.9994           0
     26550 TIP3     3072     TIP3     H1       HT       0.417000       1.00800           0
     26551 TIP3     3072     TIP3     H2       HT       0.417000       1.00800           0
     26552 TIP3     3073     TIP3     OH2      OT      -0.834000       15.9994           0
     26553 TIP3     3073     TIP3     H1       HT       0.417000       1.00800           0
     26554 TIP3     3073     TIP3     H2       HT       0.417000       1.00800           0
     26555 TIP3     3074     TIP3     OH2      OT      -0.834000       15.9994           0
     26556 TIP3     3074     TIP3     H1       HT       0.417000       1.00800           0
     26557 TIP3     3074     TIP3     H2       HT       0.417000       1.00800           0
     26558 TIP3     3075     TIP3     OH2      OT      -0.834000       15.9994           0
     26559 TIP3     3075     TIP3     H1       HT       0.417000       1.00800           0
     26560 TIP3     3075     TIP3     H2       HT       0.417000       1.00800           0
     26561 TIP3     3076     TIP3     OH2      OT      -0.834000       15.9994           0
     26562 TIP3     3076     TIP3     H1       HT       0.417000       1.00800           0
     26563 TIP3     3076     TIP3     H2       HT       0.417000       1.00800           0
     26564 TIP3     3077     TIP3     OH2      OT      -0.834000       15.9994           0
     26565 TIP3     3077     TIP3     H1       HT       0.417000       1.00800           0
     26566 TIP3     3077     TIP3     H2       HT       0.417000       1.00800           0
     26567 TIP3     3078     TIP3     OH2      OT      -0.834000       15.9994           0
     26568 TIP3     3078     TIP3     H1       HT       0.417000       1.00800           0
     26569 TIP3     3078     TIP3     H2       HT       0.417000       1.00800           0
     26570 TIP3     3079     TIP3     OH2      OT      -0.834000       15.9994           0
     26571 TIP3     3079     TIP3     H1       HT       0.417000       1.00800           0
     26572 TIP3     3079     TIP3     H2       HT       0.417000       1.00800           0
     26573 TIP3     3080     TIP3     OH2      OT      -0.834000       15.9994           0
     26574 TIP3     3080     TIP3     H1       HT       0.417000       1.00800           0
     26575 TIP3     3080     TIP3     H2       HT       0.417000       1.00800           0
     26576 TIP3     3081     TIP3     OH2      OT      -0.834000       15.9994           0
     26577 TIP3     3081     TIP3     H1       HT       0.417000       1.00800           0
     26578 TIP3     3081     TIP3     H2       HT       0.417000       1.00800           0
     26579 TIP3     3082     TIP3     OH2      OT      -0.834000       15.9994           0
     26580 TIP3     3082     TIP3     H1       HT       0.417000       1.00800           0
     26581 TIP3     3082     TIP3     H2       HT       0.417000       1.00800           0
     26582 TIP3     3083     TIP3     OH2      OT      -0.834000       15.9994           0
     26583 TIP3     3083     TIP3     H1       HT       0.417000       1.00800           0
     26584 TIP3     3083     TIP3     H2       HT       0.417000       1.00800           0
     26585 TIP3     3084     TIP3     OH2      OT      -0.834000       15.9994           0
     26586 TIP3     3084     TIP3     H1       HT       0.417000       1.00800           0
     26587 TIP3     3084     TIP3     H2       HT       0.417000       1.00800           0
     26588 TIP3     3085     TIP3     OH2      OT      -0.834000       15.9994           0
     26589 TIP3     3085     TIP3     H1       HT       0.417000       1.00800           0
     26590 TIP3     3085     TIP3     H2       HT       0.417000       1.00800           0
     26591 TIP3     3086     TIP3     OH2      OT      -0.834000       15.9994           0
     26592 TIP3     3086     TIP3     H1       HT       0.417000       1.00800           0
     26593 TIP3     3086     TIP3     H2       HT       0.417000       1.00800           0
     26594 TIP3     3087     TIP3     OH2      OT      -0.834000       15.9994           0
     26595 TIP3     3087     TIP3     H1       HT       0.417000       1.00800           0
     26596 TIP3     3087     TIP3     H2       HT       0.417000       1.00800           0
     26597 TIP3     3088     TIP3     OH2      OT      -0.834000       15.9994           0
     26598 TIP3     3088     TIP3     H1       HT       0.417000       1.00800           0
     26599 TIP3     3088     TIP3     H2       HT       0.417000       1.00800           0
     26600 TIP3     3089     TIP3     OH2      OT      -0.834000       15.9994           0
     26601 TIP3     3089     TIP3     H1       HT       0.417000       1.00800           0
     26602 TIP3     3089     TIP3     H2       HT       0.417000       1.00800           0
     26603 TIP3     3090     TIP3     OH2      OT      -0.834000       15.9994           0
     26604 TIP3     3090     TIP3     H1       HT       0.417000       1.00800           0
     26605 TIP3     3090     TIP3     H2       HT       0.417000       1.00800           0
     26606 TIP3     3091     TIP3     OH2      OT      -0.834000       15.9994           0
     26607 TIP3     3091     TIP3     H1       HT       0.417000       1.00800           0
     26608 TIP3     3091     TIP3     H2       HT       0.417000       1.00800           0
     26609 TIP3     3092     TIP3     OH2      OT      -0.834000       15.9994           0
     26610 TIP3     3092     TIP3     H1       HT       0.417000       1.00800           0
     26611 TIP3     3092     TIP3     H2       HT       0.417000       1.00800           0
     26612 TIP3     3093     TIP3     OH2      OT      -0.834000       15.9994           0
     26613 TIP3     3093     TIP3     H1       HT       0.417000       1.00800           0
     26614 TIP3     3093     TIP3     H2       HT       0.417000       1.00800           0
     26615 TIP3     3094     TIP3     OH2      OT      -0.834000       15.9994           0
     26616 TIP3     3094     TIP3     H1       HT       0.417000       1.00800           0
     26617 TIP3     3094     TIP3     H2       HT       0.417000       1.00800           0
     26618 TIP3     3095     TIP3     OH2      OT      -0.834000       15.9994           0
     26619 TIP3     3095     TIP3     H1       HT       0.417000       1.00800           0
     26620 TIP3     3095     TIP3     H2       HT       0.417000       1.00800           0
     26621 TIP3     3096     TIP3     OH2      OT      -0.834000       15.9994           0
     26622 TIP3     3096     TIP3     H1       HT       0.417000       1.00800           0
     26623 TIP3     3096     TIP3     H2       HT       0.417000       1.00800           0
     26624 TIP3     3097     TIP3     OH2      OT      -0.834000       15.9994           0
     26625 TIP3     3097     TIP3     H1       HT       0.417000       1.00800           0
     26626 TIP3     3097     TIP3     H2       HT       0.417000       1.00800           0
     26627 TIP3     3098     TIP3     OH2      OT      -0.834000       15.9994           0
     26628 TIP3     3098     TIP3     H1       HT       0.417000       1.00800           0
     26629 TIP3     3098     TIP3     H2       HT       0.417000       1.00800           0
     26630 TIP3     3099     TIP3     OH2      OT      -0.834000       15.9994           0
     26631 TIP3     3099     TIP3     H1       HT       0.417000       1.00800           0
     26632 TIP3     3099     TIP3     H2       HT       0.417000       1.00800           0
     26633 TIP3     3100     TIP3     OH2      OT      -0.834000       15.9994           0
     26634 TIP3     3100     TIP3     H1       HT       0.417000       1.00800           0
     26635 TIP3     3100     TIP3     H2       HT       0.417000       1.00800           0
     26636 TIP3     3101     TIP3     OH2      OT      -0.834000       15.9994           0
     26637 TIP3     3101     TIP3     H1       HT       0.417000       1.00800           0
     26638 TIP3     3101     TIP3     H2       HT       0.417000       1.00800           0
     26639 TIP3     3102     TIP3     OH2      OT      -0.834000       15.9994           0
     26640 TIP3     3102     TIP3     H1       HT       0.417000       1.00800           0
     26641 TIP3     3102     TIP3     H2       HT       0.417000       1.00800           0
     26642 TIP3     3103     TIP3     OH2      OT      -0.834000       15.9994           0
     26643 TIP3     3103     TIP3     H1       HT       0.417000       1.00800           0
     26644 TIP3     3103     TIP3     H2       HT       0.417000       1.00800           0
     26645 TIP3     3104     TIP3     OH2      OT      -0.834000       15.9994           0
     26646 TIP3     3104     TIP3     H1       HT       0.417000       1.00800           0
     26647 TIP3     3104     TIP3     H2       HT       0.417000       1.00800           0
     26648 TIP3     3105     TIP3     OH2      OT      -0.834000       15.9994           0
     26649 TIP3     3105     TIP3     H1       HT       0.417000       1.00800           0
     26650 TIP3     3105     TIP3     H2       HT       0.417000       1.00800           0
     26651 TIP3     3106     TIP3     OH2      OT      -0.834000       15.9994           0
     26652 TIP3     3106     TIP3     H1       HT       0.417000       1.00800           0
     26653 TIP3     3106     TIP3     H2       HT       0.417000       1.00800           0
     26654 TIP3     3107     TIP3     OH2      OT      -0.834000       15.9994           0
     26655 TIP3     3107     TIP3     H1       HT       0.417000       1.00800           0
     26656 TIP3     3107     TIP3     H2       HT       0.417000       1.00800           0
     26657 TIP3     3108     TIP3     OH2      OT      -0.834000       15.9994           0
     26658 TIP3     3108     TIP3     H1       HT       0.417000       1.00800           0
     26659 TIP3     3108     TIP3     H2       HT       0.417000       1.00800           0
     26660 TIP3     3109     TIP3     OH2      OT      -0.834000       15.9994           0
     26661 TIP3     3109     TIP3     H1       HT       0.417000       1.00800           0
     26662 TIP3     3109     TIP3     H2       HT       0.417000       1.00800           0
     26663 TIP3     3110     TIP3     OH2      OT      -0.834000       15.9994           0
     26664 TIP3     3110     TIP3     H1       HT       0.417000       1.00800           0
     26665 TIP3     3110     TIP3     H2       HT       0.417000       1.00800           0
     26666 TIP3     3111     TIP3     OH2      OT      -0.834000       15.9994           0
     26667 TIP3     3111     TIP3     H1       HT       0.417000       1.00800           0
     26668 TIP3     3111     TIP3     H2       HT       0.417000       1.00800           0
     26669 TIP3     3112     TIP3     OH2      OT      -0.834000       15.9994           0
     26670 TIP3     3112     TIP3     H1       HT       0.417000       1.00800           0
     26671 TIP3     3112     TIP3     H2       HT       0.417000       1.00800           0
     26672 TIP3     3113     TIP3     OH2      OT      -0.834000       15.9994           0
     26673 TIP3     3113     TIP3     H1       HT       0.417000       1.00800           0
     26674 TIP3     3113     TIP3     H2       HT       0.417000       1.00800           0
     26675 TIP3     3114     TIP3     OH2      OT      -0.834000       15.9994           0
     26676 TIP3     3114     TIP3     H1       HT       0.417000       1.00800           0
     26677 TIP3     3114     TIP3     H2       HT       0.417000       1.00800           0
     26678 TIP3     3115     TIP3     OH2      OT      -0.834000       15.9994           0
     26679 TIP3     3115     TIP3     H1       HT       0.417000       1.00800           0
     26680 TIP3     3115     TIP3     H2       HT       0.417000       1.00800           0
     26681 TIP3     3116     TIP3     OH2      OT      -0.834000       15.9994           0
     26682 TIP3     3116     TIP3     H1       HT       0.417000       1.00800           0
     26683 TIP3     3116     TIP3     H2       HT       0.417000       1.00800           0
     26684 TIP3     3117     TIP3     OH2      OT      -0.834000       15.9994           0
     26685 TIP3     3117     TIP3     H1       HT       0.417000       1.00800           0
     26686 TIP3     3117     TIP3     H2       HT       0.417000       1.00800           0
     26687 TIP3     3118     TIP3     OH2      OT      -0.834000       15.9994           0
     26688 TIP3     3118     TIP3     H1       HT       0.417000       1.00800           0
     26689 TIP3     3118     TIP3     H2       HT       0.417000       1.00800           0
     26690 TIP3     3119     TIP3     OH2      OT      -0.834000       15.9994           0
     26691 TIP3     3119     TIP3     H1       HT       0.417000       1.00800           0
     26692 TIP3     3119     TIP3     H2       HT       0.417000       1.00800           0
     26693 TIP3     3120     TIP3     OH2      OT      -0.834000       15.9994           0
     26694 TIP3     3120     TIP3     H1       HT       0.417000       1.00800           0
     26695 TIP3     3120     TIP3     H2       HT       0.417000       1.00800           0
     26696 TIP3     3121     TIP3     OH2      OT      -0.834000       15.9994           0
     26697 TIP3     3121     TIP3     H1       HT       0.417000       1.00800           0
     26698 TIP3     3121     TIP3     H2       HT       0.417000       1.00800           0
     26699 TIP3     3122     TIP3     OH2      OT      -0.834000       15.9994           0
     26700 TIP3     3122     TIP3     H1       HT       0.417000       1.00800           0
     26701 TIP3     3122     TIP3     H2       HT       0.417000       1.00800           0
     26702 TIP3     3123     TIP3     OH2      OT      -0.834000       15.9994           0
     26703 TIP3     3123     TIP3     H1       HT       0.417000       1.00800           0
     26704 TIP3     3123     TIP3     H2       HT       0.417000       1.00800           0
     26705 TIP3     3124     TIP3     OH2      OT      -0.834000       15.9994           0
     26706 TIP3     3124     TIP3     H1       HT       0.417000       1.00800           0
     26707 TIP3     3124     TIP3     H2       HT       0.417000       1.00800           0
     26708 TIP3     3125     TIP3     OH2      OT      -0.834000       15.9994           0
     26709 TIP3     3125     TIP3     H1       HT       0.417000       1.00800           0
     26710 TIP3     3125     TIP3     H2       HT       0.417000       1.00800           0
     26711 TIP3     3126     TIP3     OH2      OT      -0.834000       15.9994           0
     26712 TIP3     3126     TIP3     H1       HT       0.417000       1.00800           0
     26713 TIP3     3126     TIP3     H2       HT       0.417000       1.00800           0
     26714 TIP3     3127     TIP3     OH2      OT      -0.834000       15.9994           0
     26715 TIP3     3127     TIP3     H1       HT       0.417000       1.00800           0
     26716 TIP3     3127     TIP3     H2       HT       0.417000       1.00800           0
     26717 TIP3     3128     TIP3     OH2      OT      -0.834000       15.9994           0
     26718 TIP3     3128     TIP3     H1       HT       0.417000       1.00800           0
     26719 TIP3     3128     TIP3     H2       HT       0.417000       1.00800           0
     26720 TIP3     3129     TIP3     OH2      OT      -0.834000       15.9994           0
     26721 TIP3     3129     TIP3     H1       HT       0.417000       1.00800           0
     26722 TIP3     3129     TIP3     H2       HT       0.417000       1.00800           0
     26723 TIP3     3130     TIP3     OH2      OT      -0.834000       15.9994           0
     26724 TIP3     3130     TIP3     H1       HT       0.417000       1.00800           0
     26725 TIP3     3130     TIP3     H2       HT       0.417000       1.00800           0
     26726 TIP3     3131     TIP3     OH2      OT      -0.834000       15.9994           0
     26727 TIP3     3131     TIP3     H1       HT       0.417000       1.00800           0
     26728 TIP3     3131     TIP3     H2       HT       0.417000       1.00800           0
     26729 TIP3     3132     TIP3     OH2      OT      -0.834000       15.9994           0
     26730 TIP3     3132     TIP3     H1       HT       0.417000       1.00800           0
     26731 TIP3     3132     TIP3     H2       HT       0.417000       1.00800           0
     26732 TIP3     3133     TIP3     OH2      OT      -0.834000       15.9994           0
     26733 TIP3     3133     TIP3     H1       HT       0.417000       1.00800           0
     26734 TIP3     3133     TIP3     H2       HT       0.417000       1.00800           0
     26735 TIP3     3134     TIP3     OH2      OT      -0.834000       15.9994           0
     26736 TIP3     3134     TIP3     H1       HT       0.417000       1.00800           0
     26737 TIP3     3134     TIP3     H2       HT       0.417000       1.00800           0
     26738 TIP3     3135     TIP3     OH2      OT      -0.834000       15.9994           0
     26739 TIP3     3135     TIP3     H1       HT       0.417000       1.00800           0
     26740 TIP3     3135     TIP3     H2       HT       0.417000       1.00800           0
     26741 TIP3     3136     TIP3     OH2      OT      -0.834000       15.9994           0
     26742 TIP3     3136     TIP3     H1       HT       0.417000       1.00800           0
     26743 TIP3     3136     TIP3     H2       HT       0.417000       1.00800           0
     26744 TIP3     3137     TIP3     OH2      OT      -0.834000       15.9994           0
     26745 TIP3     3137     TIP3     H1       HT       0.417000       1.00800           0
     26746 TIP3     3137     TIP3     H2       HT       0.417000       1.00800           0
     26747 TIP3     3138     TIP3     OH2      OT      -0.834000       15.9994           0
     26748 TIP3     3138     TIP3     H1       HT       0.417000       1.00800           0
     26749 TIP3     3138     TIP3     H2       HT       0.417000       1.00800           0
     26750 TIP3     3139     TIP3     OH2      OT      -0.834000       15.9994           0
     26751 TIP3     3139     TIP3     H1       HT       0.417000       1.00800           0
     26752 TIP3     3139     TIP3     H2       HT       0.417000       1.00800           0
     26753 TIP3     3140     TIP3     OH2      OT      -0.834000       15.9994           0
     26754 TIP3     3140     TIP3     H1       HT       0.417000       1.00800           0
     26755 TIP3     3140     TIP3     H2       HT       0.417000       1.00800           0
     26756 TIP3     3141     TIP3     OH2      OT      -0.834000       15.9994           0
     26757 TIP3     3141     TIP3     H1       HT       0.417000       1.00800           0
     26758 TIP3     3141     TIP3     H2       HT       0.417000       1.00800           0
     26759 TIP3     3142     TIP3     OH2      OT      -0.834000       15.9994           0
     26760 TIP3     3142     TIP3     H1       HT       0.417000       1.00800           0
     26761 TIP3     3142     TIP3     H2       HT       0.417000       1.00800           0
     26762 TIP3     3143     TIP3     OH2      OT      -0.834000       15.9994           0
     26763 TIP3     3143     TIP3     H1       HT       0.417000       1.00800           0
     26764 TIP3     3143     TIP3     H2       HT       0.417000       1.00800           0
     26765 TIP3     3144     TIP3     OH2      OT      -0.834000       15.9994           0
     26766 TIP3     3144     TIP3     H1       HT       0.417000       1.00800           0
     26767 TIP3     3144     TIP3     H2       HT       0.417000       1.00800           0
     26768 TIP3     3145     TIP3     OH2      OT      -0.834000       15.9994           0
     26769 TIP3     3145     TIP3     H1       HT       0.417000       1.00800           0
     26770 TIP3     3145     TIP3     H2       HT       0.417000       1.00800           0
     26771 TIP3     3146     TIP3     OH2      OT      -0.834000       15.9994           0
     26772 TIP3     3146     TIP3     H1       HT       0.417000       1.00800           0
     26773 TIP3     3146     TIP3     H2       HT       0.417000       1.00800           0
     26774 TIP3     3147     TIP3     OH2      OT      -0.834000       15.9994           0
     26775 TIP3     3147     TIP3     H1       HT       0.417000       1.00800           0
     26776 TIP3     3147     TIP3     H2       HT       0.417000       1.00800           0
     26777 TIP3     3148     TIP3     OH2      OT      -0.834000       15.9994           0
     26778 TIP3     3148     TIP3     H1       HT       0.417000       1.00800           0
     26779 TIP3     3148     TIP3     H2       HT       0.417000       1.00800           0
     26780 TIP3     3149     TIP3     OH2      OT      -0.834000       15.9994           0
     26781 TIP3     3149     TIP3     H1       HT       0.417000       1.00800           0
     26782 TIP3     3149     TIP3     H2       HT       0.417000       1.00800           0
     26783 TIP3     3150     TIP3     OH2      OT      -0.834000       15.9994           0
     26784 TIP3     3150     TIP3     H1       HT       0.417000       1.00800           0
     26785 TIP3     3150     TIP3     H2       HT       0.417000       1.00800           0
     26786 TIP3     3151     TIP3     OH2      OT      -0.834000       15.9994           0
     26787 TIP3     3151     TIP3     H1       HT       0.417000       1.00800           0
     26788 TIP3     3151     TIP3     H2       HT       0.417000       1.00800           0
     26789 TIP3     3152     TIP3     OH2      OT      -0.834000       15.9994           0
     26790 TIP3     3152     TIP3     H1       HT       0.417000       1.00800           0
     26791 TIP3     3152     TIP3     H2       HT       0.417000       1.00800           0
     26792 TIP3     3153     TIP3     OH2      OT      -0.834000       15.9994           0
     26793 TIP3     3153     TIP3     H1       HT       0.417000       1.00800           0
     26794 TIP3     3153     TIP3     H2       HT       0.417000       1.00800           0
     26795 TIP3     3154     TIP3     OH2      OT      -0.834000       15.9994           0
     26796 TIP3     3154     TIP3     H1       HT       0.417000       1.00800           0
     26797 TIP3     3154     TIP3     H2       HT       0.417000       1.00800           0
     26798 TIP3     3155     TIP3     OH2      OT      -0.834000       15.9994           0
     26799 TIP3     3155     TIP3     H1       HT       0.417000       1.00800           0
     26800 TIP3     3155     TIP3     H2       HT       0.417000       1.00800           0
     26801 TIP3     3156     TIP3     OH2      OT      -0.834000       15.9994           0
     26802 TIP3     3156     TIP3     H1       HT       0.417000       1.00800           0
     26803 TIP3     3156     TIP3     H2       HT       0.417000       1.00800           0
     26804 TIP3     3157     TIP3     OH2      OT      -0.834000       15.9994           0
     26805 TIP3     3157     TIP3     H1       HT       0.417000       1.00800           0
     26806 TIP3     3157     TIP3     H2       HT       0.417000       1.00800           0
     26807 TIP3     3158     TIP3     OH2      OT      -0.834000       15.9994           0
     26808 TIP3     3158     TIP3     H1       HT       0.417000       1.00800           0
     26809 TIP3     3158     TIP3     H2       HT       0.417000       1.00800           0
     26810 TIP3     3159     TIP3     OH2      OT      -0.834000       15.9994           0
     26811 TIP3     3159     TIP3     H1       HT       0.417000       1.00800           0
     26812 TIP3     3159     TIP3     H2       HT       0.417000       1.00800           0
     26813 TIP3     3160     TIP3     OH2      OT      -0.834000       15.9994           0
     26814 TIP3     3160     TIP3     H1       HT       0.417000       1.00800           0
     26815 TIP3     3160     TIP3     H2       HT       0.417000       1.00800           0
     26816 TIP3     3161     TIP3     OH2      OT      -0.834000       15.9994           0
     26817 TIP3     3161     TIP3     H1       HT       0.417000       1.00800           0
     26818 TIP3     3161     TIP3     H2       HT       0.417000       1.00800           0
     26819 TIP3     3162     TIP3     OH2      OT      -0.834000       15.9994           0
     26820 TIP3     3162     TIP3     H1       HT       0.417000       1.00800           0
     26821 TIP3     3162     TIP3     H2       HT       0.417000       1.00800           0
     26822 TIP3     3163     TIP3     OH2      OT      -0.834000       15.9994           0
     26823 TIP3     3163     TIP3     H1       HT       0.417000       1.00800           0
     26824 TIP3     3163     TIP3     H2       HT       0.417000       1.00800           0
     26825 TIP3     3164     TIP3     OH2      OT      -0.834000       15.9994           0
     26826 TIP3     3164     TIP3     H1       HT       0.417000       1.00800           0
     26827 TIP3     3164     TIP3     H2       HT       0.417000       1.00800           0
     26828 TIP3     3165     TIP3     OH2      OT      -0.834000       15.9994           0
     26829 TIP3     3165     TIP3     H1       HT       0.417000       1.00800           0
     26830 TIP3     3165     TIP3     H2       HT       0.417000       1.00800           0
     26831 TIP3     3166     TIP3     OH2      OT      -0.834000       15.9994           0
     26832 TIP3     3166     TIP3     H1       HT       0.417000       1.00800           0
     26833 TIP3     3166     TIP3     H2       HT       0.417000       1.00800           0
     26834 TIP3     3167     TIP3     OH2      OT      -0.834000       15.9994           0
     26835 TIP3     3167     TIP3     H1       HT       0.417000       1.00800           0
     26836 TIP3     3167     TIP3     H2       HT       0.417000       1.00800           0
     26837 TIP3     3168     TIP3     OH2      OT      -0.834000       15.9994           0
     26838 TIP3     3168     TIP3     H1       HT       0.417000       1.00800           0
     26839 TIP3     3168     TIP3     H2       HT       0.417000       1.00800           0
     26840 TIP3     3169     TIP3     OH2      OT      -0.834000       15.9994           0
     26841 TIP3     3169     TIP3     H1       HT       0.417000       1.00800           0
     26842 TIP3     3169     TIP3     H2       HT       0.417000       1.00800           0
     26843 TIP3     3170     TIP3     OH2      OT      -0.834000       15.9994           0
     26844 TIP3     3170     TIP3     H1       HT       0.417000       1.00800           0
     26845 TIP3     3170     TIP3     H2       HT       0.417000       1.00800           0
     26846 TIP3     3171     TIP3     OH2      OT      -0.834000       15.9994           0
     26847 TIP3     3171     TIP3     H1       HT       0.417000       1.00800           0
     26848 TIP3     3171     TIP3     H2       HT       0.417000       1.00800           0
     26849 TIP3     3172     TIP3     OH2      OT      -0.834000       15.9994           0
     26850 TIP3     3172     TIP3     H1       HT       0.417000       1.00800           0
     26851 TIP3     3172     TIP3     H2       HT       0.417000       1.00800           0
     26852 TIP3     3173     TIP3     OH2      OT      -0.834000       15.9994           0
     26853 TIP3     3173     TIP3     H1       HT       0.417000       1.00800           0
     26854 TIP3     3173     TIP3     H2       HT       0.417000       1.00800           0
     26855 TIP3     3174     TIP3     OH2      OT      -0.834000       15.9994           0
     26856 TIP3     3174     TIP3     H1       HT       0.417000       1.00800           0
     26857 TIP3     3174     TIP3     H2       HT       0.417000       1.00800           0
     26858 TIP3     3175     TIP3     OH2      OT      -0.834000       15.9994           0
     26859 TIP3     3175     TIP3     H1       HT       0.417000       1.00800           0
     26860 TIP3     3175     TIP3     H2       HT       0.417000       1.00800           0
     26861 TIP3     3176     TIP3     OH2      OT      -0.834000       15.9994           0
     26862 TIP3     3176     TIP3     H1       HT       0.417000       1.00800           0
     26863 TIP3     3176     TIP3     H2       HT       0.417000       1.00800           0
     26864 TIP3     3177     TIP3     OH2      OT      -0.834000       15.9994           0
     26865 TIP3     3177     TIP3     H1       HT       0.417000       1.00800           0
     26866 TIP3     3177     TIP3     H2       HT       0.417000       1.00800           0
     26867 TIP3     3178     TIP3     OH2      OT      -0.834000       15.9994           0
     26868 TIP3     3178     TIP3     H1       HT       0.417000       1.00800           0
     26869 TIP3     3178     TIP3     H2       HT       0.417000       1.00800           0
     26870 TIP3     3179     TIP3     OH2      OT      -0.834000       15.9994           0
     26871 TIP3     3179     TIP3     H1       HT       0.417000       1.00800           0
     26872 TIP3     3179     TIP3     H2       HT       0.417000       1.00800           0
     26873 TIP3     3180     TIP3     OH2      OT      -0.834000       15.9994           0
     26874 TIP3     3180     TIP3     H1       HT       0.417000       1.00800           0
     26875 TIP3     3180     TIP3     H2       HT       0.417000       1.00800           0
     26876 TIP3     3181     TIP3     OH2      OT      -0.834000       15.9994           0
     26877 TIP3     3181     TIP3     H1       HT       0.417000       1.00800           0
     26878 TIP3     3181     TIP3     H2       HT       0.417000       1.00800           0
     26879 TIP3     3182     TIP3     OH2      OT      -0.834000       15.9994           0
     26880 TIP3     3182     TIP3     H1       HT       0.417000       1.00800           0
     26881 TIP3     3182     TIP3     H2       HT       0.417000       1.00800           0
     26882 TIP3     3183     TIP3     OH2      OT      -0.834000       15.9994           0
     26883 TIP3     3183     TIP3     H1       HT       0.417000       1.00800           0
     26884 TIP3     3183     TIP3     H2       HT       0.417000       1.00800           0
     26885 TIP3     3184     TIP3     OH2      OT      -0.834000       15.9994           0
     26886 TIP3     3184     TIP3     H1       HT       0.417000       1.00800           0
     26887 TIP3     3184     TIP3     H2       HT       0.417000       1.00800           0
     26888 TIP3     3185     TIP3     OH2      OT      -0.834000       15.9994           0
     26889 TIP3     3185     TIP3     H1       HT       0.417000       1.00800           0
     26890 TIP3     3185     TIP3     H2       HT       0.417000       1.00800           0
     26891 TIP3     3186     TIP3     OH2      OT      -0.834000       15.9994           0
     26892 TIP3     3186     TIP3     H1       HT       0.417000       1.00800           0
     26893 TIP3     3186     TIP3     H2       HT       0.417000       1.00800           0
     26894 TIP3     3187     TIP3     OH2      OT      -0.834000       15.9994           0
     26895 TIP3     3187     TIP3     H1       HT       0.417000       1.00800           0
     26896 TIP3     3187     TIP3     H2       HT       0.417000       1.00800           0
     26897 TIP3     3188     TIP3     OH2      OT      -0.834000       15.9994           0
     26898 TIP3     3188     TIP3     H1       HT       0.417000       1.00800           0
     26899 TIP3     3188     TIP3     H2       HT       0.417000       1.00800           0
     26900 TIP3     3189     TIP3     OH2      OT      -0.834000       15.9994           0
     26901 TIP3     3189     TIP3     H1       HT       0.417000       1.00800           0
     26902 TIP3     3189     TIP3     H2       HT       0.417000       1.00800           0
     26903 TIP3     3190     TIP3     OH2      OT      -0.834000       15.9994           0
     26904 TIP3     3190     TIP3     H1       HT       0.417000       1.00800           0
     26905 TIP3     3190     TIP3     H2       HT       0.417000       1.00800           0
     26906 TIP3     3191     TIP3     OH2      OT      -0.834000       15.9994           0
     26907 TIP3     3191     TIP3     H1       HT       0.417000       1.00800           0
     26908 TIP3     3191     TIP3     H2       HT       0.417000       1.00800           0
     26909 TIP3     3192     TIP3     OH2      OT      -0.834000       15.9994           0
     26910 TIP3     3192     TIP3     H1       HT       0.417000       1.00800           0
     26911 TIP3     3192     TIP3     H2       HT       0.417000       1.00800           0
     26912 TIP3     3193     TIP3     OH2      OT      -0.834000       15.9994           0
     26913 TIP3     3193     TIP3     H1       HT       0.417000       1.00800           0
     26914 TIP3     3193     TIP3     H2       HT       0.417000       1.00800           0
     26915 TIP3     3194     TIP3     OH2      OT      -0.834000       15.9994           0
     26916 TIP3     3194     TIP3     H1       HT       0.417000       1.00800           0
     26917 TIP3     3194     TIP3     H2       HT       0.417000       1.00800           0
     26918 TIP3     3195     TIP3     OH2      OT      -0.834000       15.9994           0
     26919 TIP3     3195     TIP3     H1       HT       0.417000       1.00800           0
     26920 TIP3     3195     TIP3     H2       HT       0.417000       1.00800           0
     26921 TIP3     3196     TIP3     OH2      OT      -0.834000       15.9994           0
     26922 TIP3     3196     TIP3     H1       HT       0.417000       1.00800           0
     26923 TIP3     3196     TIP3     H2       HT       0.417000       1.00800           0
     26924 TIP3     3197     TIP3     OH2      OT      -0.834000       15.9994           0
     26925 TIP3     3197     TIP3     H1       HT       0.417000       1.00800           0
     26926 TIP3     3197     TIP3     H2       HT       0.417000       1.00800           0
     26927 TIP3     3198     TIP3     OH2      OT      -0.834000       15.9994           0
     26928 TIP3     3198     TIP3     H1       HT       0.417000       1.00800           0
     26929 TIP3     3198     TIP3     H2       HT       0.417000       1.00800           0
     26930 TIP3     3199     TIP3     OH2      OT      -0.834000       15.9994           0
     26931 TIP3     3199     TIP3     H1       HT       0.417000       1.00800           0
     26932 TIP3     3199     TIP3     H2       HT       0.417000       1.00800           0
     26933 TIP3     3200     TIP3     OH2      OT      -0.834000       15.9994           0
     26934 TIP3     3200     TIP3     H1       HT       0.417000       1.00800           0
     26935 TIP3     3200     TIP3     H2       HT       0.417000       1.00800           0
     26936 TIP3     3201     TIP3     OH2      OT      -0.834000       15.9994           0
     26937 TIP3     3201     TIP3     H1       HT       0.417000       1.00800           0
     26938 TIP3     3201     TIP3     H2       HT       0.417000       1.00800           0
     26939 TIP3     3202     TIP3     OH2      OT      -0.834000       15.9994           0
     26940 TIP3     3202     TIP3     H1       HT       0.417000       1.00800           0
     26941 TIP3     3202     TIP3     H2       HT       0.417000       1.00800           0
     26942 TIP3     3203     TIP3     OH2      OT      -0.834000       15.9994           0
     26943 TIP3     3203     TIP3     H1       HT       0.417000       1.00800           0
     26944 TIP3     3203     TIP3     H2       HT       0.417000       1.00800           0
     26945 TIP3     3204     TIP3     OH2      OT      -0.834000       15.9994           0
     26946 TIP3     3204     TIP3     H1       HT       0.417000       1.00800           0
     26947 TIP3     3204     TIP3     H2       HT       0.417000       1.00800           0
     26948 TIP3     3205     TIP3     OH2      OT      -0.834000       15.9994           0
     26949 TIP3     3205     TIP3     H1       HT       0.417000       1.00800           0
     26950 TIP3     3205     TIP3     H2       HT       0.417000       1.00800           0
     26951 TIP3     3206     TIP3     OH2      OT      -0.834000       15.9994           0
     26952 TIP3     3206     TIP3     H1       HT       0.417000       1.00800           0
     26953 TIP3     3206     TIP3     H2       HT       0.417000       1.00800           0
     26954 TIP3     3207     TIP3     OH2      OT      -0.834000       15.9994           0
     26955 TIP3     3207     TIP3     H1       HT       0.417000       1.00800           0
     26956 TIP3     3207     TIP3     H2       HT       0.417000       1.00800           0
     26957 TIP3     3208     TIP3     OH2      OT      -0.834000       15.9994           0
     26958 TIP3     3208     TIP3     H1       HT       0.417000       1.00800           0
     26959 TIP3     3208     TIP3     H2       HT       0.417000       1.00800           0
     26960 TIP3     3209     TIP3     OH2      OT      -0.834000       15.9994           0
     26961 TIP3     3209     TIP3     H1       HT       0.417000       1.00800           0
     26962 TIP3     3209     TIP3     H2       HT       0.417000       1.00800           0
     26963 TIP3     3210     TIP3     OH2      OT      -0.834000       15.9994           0
     26964 TIP3     3210     TIP3     H1       HT       0.417000       1.00800           0
     26965 TIP3     3210     TIP3     H2       HT       0.417000       1.00800           0
     26966 TIP3     3211     TIP3     OH2      OT      -0.834000       15.9994           0
     26967 TIP3     3211     TIP3     H1       HT       0.417000       1.00800           0
     26968 TIP3     3211     TIP3     H2       HT       0.417000       1.00800           0
     26969 TIP3     3212     TIP3     OH2      OT      -0.834000       15.9994           0
     26970 TIP3     3212     TIP3     H1       HT       0.417000       1.00800           0
     26971 TIP3     3212     TIP3     H2       HT       0.417000       1.00800           0
     26972 TIP3     3213     TIP3     OH2      OT      -0.834000       15.9994           0
     26973 TIP3     3213     TIP3     H1       HT       0.417000       1.00800           0
     26974 TIP3     3213     TIP3     H2       HT       0.417000       1.00800           0
     26975 TIP3     3214     TIP3     OH2      OT      -0.834000       15.9994           0
     26976 TIP3     3214     TIP3     H1       HT       0.417000       1.00800           0
     26977 TIP3     3214     TIP3     H2       HT       0.417000       1.00800           0
     26978 TIP3     3215     TIP3     OH2      OT      -0.834000       15.9994           0
     26979 TIP3     3215     TIP3     H1       HT       0.417000       1.00800           0
     26980 TIP3     3215     TIP3     H2       HT       0.417000       1.00800           0
     26981 TIP3     3216     TIP3     OH2      OT      -0.834000       15.9994           0
     26982 TIP3     3216     TIP3     H1       HT       0.417000       1.00800           0
     26983 TIP3     3216     TIP3     H2       HT       0.417000       1.00800           0
     26984 TIP3     3217     TIP3     OH2      OT      -0.834000       15.9994           0
     26985 TIP3     3217     TIP3     H1       HT       0.417000       1.00800           0
     26986 TIP3     3217     TIP3     H2       HT       0.417000       1.00800           0
     26987 TIP3     3218     TIP3     OH2      OT      -0.834000       15.9994           0
     26988 TIP3     3218     TIP3     H1       HT       0.417000       1.00800           0
     26989 TIP3     3218     TIP3     H2       HT       0.417000       1.00800           0
     26990 TIP3     3219     TIP3     OH2      OT      -0.834000       15.9994           0
     26991 TIP3     3219     TIP3     H1       HT       0.417000       1.00800           0
     26992 TIP3     3219     TIP3     H2       HT       0.417000       1.00800           0
     26993 TIP3     3220     TIP3     OH2      OT      -0.834000       15.9994           0
     26994 TIP3     3220     TIP3     H1       HT       0.417000       1.00800           0
     26995 TIP3     3220     TIP3     H2       HT       0.417000       1.00800           0
     26996 TIP3     3221     TIP3     OH2      OT      -0.834000       15.9994           0
     26997 TIP3     3221     TIP3     H1       HT       0.417000       1.00800           0
     26998 TIP3     3221     TIP3     H2       HT       0.417000       1.00800           0
     26999 TIP3     3222     TIP3     OH2      OT      -0.834000       15.9994           0
     27000 TIP3     3222     TIP3     H1       HT       0.417000       1.00800           0
     27001 TIP3     3222     TIP3     H2       HT       0.417000       1.00800           0
     27002 TIP3     3223     TIP3     OH2      OT      -0.834000       15.9994           0
     27003 TIP3     3223     TIP3     H1       HT       0.417000       1.00800           0
     27004 TIP3     3223     TIP3     H2       HT       0.417000       1.00800           0
     27005 TIP3     3224     TIP3     OH2      OT      -0.834000       15.9994           0
     27006 TIP3     3224     TIP3     H1       HT       0.417000       1.00800           0
     27007 TIP3     3224     TIP3     H2       HT       0.417000       1.00800           0
     27008 TIP3     3225     TIP3     OH2      OT      -0.834000       15.9994           0
     27009 TIP3     3225     TIP3     H1       HT       0.417000       1.00800           0
     27010 TIP3     3225     TIP3     H2       HT       0.417000       1.00800           0
     27011 TIP3     3226     TIP3     OH2      OT      -0.834000       15.9994           0
     27012 TIP3     3226     TIP3     H1       HT       0.417000       1.00800           0
     27013 TIP3     3226     TIP3     H2       HT       0.417000       1.00800           0
     27014 TIP3     3227     TIP3     OH2      OT      -0.834000       15.9994           0
     27015 TIP3     3227     TIP3     H1       HT       0.417000       1.00800           0
     27016 TIP3     3227     TIP3     H2       HT       0.417000       1.00800           0
     27017 TIP3     3228     TIP3     OH2      OT      -0.834000       15.9994           0
     27018 TIP3     3228     TIP3     H1       HT       0.417000       1.00800           0
     27019 TIP3     3228     TIP3     H2       HT       0.417000       1.00800           0
     27020 TIP3     3229     TIP3     OH2      OT      -0.834000       15.9994           0
     27021 TIP3     3229     TIP3     H1       HT       0.417000       1.00800           0
     27022 TIP3     3229     TIP3     H2       HT       0.417000       1.00800           0
     27023 TIP3     3230     TIP3     OH2      OT      -0.834000       15.9994           0
     27024 TIP3     3230     TIP3     H1       HT       0.417000       1.00800           0
     27025 TIP3     3230     TIP3     H2       HT       0.417000       1.00800           0
     27026 TIP3     3231     TIP3     OH2      OT      -0.834000       15.9994           0
     27027 TIP3     3231     TIP3     H1       HT       0.417000       1.00800           0
     27028 TIP3     3231     TIP3     H2       HT       0.417000       1.00800           0
     27029 TIP3     3232     TIP3     OH2      OT      -0.834000       15.9994           0
     27030 TIP3     3232     TIP3     H1       HT       0.417000       1.00800           0
     27031 TIP3     3232     TIP3     H2       HT       0.417000       1.00800           0
     27032 TIP3     3233     TIP3     OH2      OT      -0.834000       15.9994           0
     27033 TIP3     3233     TIP3     H1       HT       0.417000       1.00800           0
     27034 TIP3     3233     TIP3     H2       HT       0.417000       1.00800           0
     27035 TIP3     3234     TIP3     OH2      OT      -0.834000       15.9994           0
     27036 TIP3     3234     TIP3     H1       HT       0.417000       1.00800           0
     27037 TIP3     3234     TIP3     H2       HT       0.417000       1.00800           0
     27038 TIP3     3235     TIP3     OH2      OT      -0.834000       15.9994           0
     27039 TIP3     3235     TIP3     H1       HT       0.417000       1.00800           0
     27040 TIP3     3235     TIP3     H2       HT       0.417000       1.00800           0
     27041 TIP3     3236     TIP3     OH2      OT      -0.834000       15.9994           0
     27042 TIP3     3236     TIP3     H1       HT       0.417000       1.00800           0
     27043 TIP3     3236     TIP3     H2       HT       0.417000       1.00800           0
     27044 TIP3     3237     TIP3     OH2      OT      -0.834000       15.9994           0
     27045 TIP3     3237     TIP3     H1       HT       0.417000       1.00800           0
     27046 TIP3     3237     TIP3     H2       HT       0.417000       1.00800           0
     27047 TIP3     3238     TIP3     OH2      OT      -0.834000       15.9994           0
     27048 TIP3     3238     TIP3     H1       HT       0.417000       1.00800           0
     27049 TIP3     3238     TIP3     H2       HT       0.417000       1.00800           0
     27050 TIP3     3239     TIP3     OH2      OT      -0.834000       15.9994           0
     27051 TIP3     3239     TIP3     H1       HT       0.417000       1.00800           0
     27052 TIP3     3239     TIP3     H2       HT       0.417000       1.00800           0
     27053 TIP3     3240     TIP3     OH2      OT      -0.834000       15.9994           0
     27054 TIP3     3240     TIP3     H1       HT       0.417000       1.00800           0
     27055 TIP3     3240     TIP3     H2       HT       0.417000       1.00800           0
     27056 TIP3     3241     TIP3     OH2      OT      -0.834000       15.9994           0
     27057 TIP3     3241     TIP3     H1       HT       0.417000       1.00800           0
     27058 TIP3     3241     TIP3     H2       HT       0.417000       1.00800           0
     27059 TIP3     3242     TIP3     OH2      OT      -0.834000       15.9994           0
     27060 TIP3     3242     TIP3     H1       HT       0.417000       1.00800           0
     27061 TIP3     3242     TIP3     H2       HT       0.417000       1.00800           0
     27062 TIP3     3243     TIP3     OH2      OT      -0.834000       15.9994           0
     27063 TIP3     3243     TIP3     H1       HT       0.417000       1.00800           0
     27064 TIP3     3243     TIP3     H2       HT       0.417000       1.00800           0
     27065 TIP3     3244     TIP3     OH2      OT      -0.834000       15.9994           0
     27066 TIP3     3244     TIP3     H1       HT       0.417000       1.00800           0
     27067 TIP3     3244     TIP3     H2       HT       0.417000       1.00800           0
     27068 TIP3     3245     TIP3     OH2      OT      -0.834000       15.9994           0
     27069 TIP3     3245     TIP3     H1       HT       0.417000       1.00800           0
     27070 TIP3     3245     TIP3     H2       HT       0.417000       1.00800           0
     27071 TIP3     3246     TIP3     OH2      OT      -0.834000       15.9994           0
     27072 TIP3     3246     TIP3     H1       HT       0.417000       1.00800           0
     27073 TIP3     3246     TIP3     H2       HT       0.417000       1.00800           0
     27074 TIP3     3247     TIP3     OH2      OT      -0.834000       15.9994           0
     27075 TIP3     3247     TIP3     H1       HT       0.417000       1.00800           0
     27076 TIP3     3247     TIP3     H2       HT       0.417000       1.00800           0
     27077 TIP3     3248     TIP3     OH2      OT      -0.834000       15.9994           0
     27078 TIP3     3248     TIP3     H1       HT       0.417000       1.00800           0
     27079 TIP3     3248     TIP3     H2       HT       0.417000       1.00800           0
     27080 TIP3     3249     TIP3     OH2      OT      -0.834000       15.9994           0
     27081 TIP3     3249     TIP3     H1       HT       0.417000       1.00800           0
     27082 TIP3     3249     TIP3     H2       HT       0.417000       1.00800           0
     27083 TIP3     3250     TIP3     OH2      OT      -0.834000       15.9994           0
     27084 TIP3     3250     TIP3     H1       HT       0.417000       1.00800           0
     27085 TIP3     3250     TIP3     H2       HT       0.417000       1.00800           0
     27086 TIP3     3251     TIP3     OH2      OT      -0.834000       15.9994           0
     27087 TIP3     3251     TIP3     H1       HT       0.417000       1.00800           0
     27088 TIP3     3251     TIP3     H2       HT       0.417000       1.00800           0
     27089 TIP3     3252     TIP3     OH2      OT      -0.834000       15.9994           0
     27090 TIP3     3252     TIP3     H1       HT       0.417000       1.00800           0
     27091 TIP3     3252     TIP3     H2       HT       0.417000       1.00800           0
     27092 TIP3     3253     TIP3     OH2      OT      -0.834000       15.9994           0
     27093 TIP3     3253     TIP3     H1       HT       0.417000       1.00800           0
     27094 TIP3     3253     TIP3     H2       HT       0.417000       1.00800           0
     27095 TIP3     3254     TIP3     OH2      OT      -0.834000       15.9994           0
     27096 TIP3     3254     TIP3     H1       HT       0.417000       1.00800           0
     27097 TIP3     3254     TIP3     H2       HT       0.417000       1.00800           0
     27098 TIP3     3255     TIP3     OH2      OT      -0.834000       15.9994           0
     27099 TIP3     3255     TIP3     H1       HT       0.417000       1.00800           0
     27100 TIP3     3255     TIP3     H2       HT       0.417000       1.00800           0
     27101 TIP3     3256     TIP3     OH2      OT      -0.834000       15.9994           0
     27102 TIP3     3256     TIP3     H1       HT       0.417000       1.00800           0
     27103 TIP3     3256     TIP3     H2       HT       0.417000       1.00800           0
     27104 TIP3     3257     TIP3     OH2      OT      -0.834000       15.9994           0
     27105 TIP3     3257     TIP3     H1       HT       0.417000       1.00800           0
     27106 TIP3     3257     TIP3     H2       HT       0.417000       1.00800           0
     27107 TIP3     3258     TIP3     OH2      OT      -0.834000       15.9994           0
     27108 TIP3     3258     TIP3     H1       HT       0.417000       1.00800           0
     27109 TIP3     3258     TIP3     H2       HT       0.417000       1.00800           0
     27110 TIP3     3259     TIP3     OH2      OT      -0.834000       15.9994           0
     27111 TIP3     3259     TIP3     H1       HT       0.417000       1.00800           0
     27112 TIP3     3259     TIP3     H2       HT       0.417000       1.00800           0
     27113 TIP3     3260     TIP3     OH2      OT      -0.834000       15.9994           0
     27114 TIP3     3260     TIP3     H1       HT       0.417000       1.00800           0
     27115 TIP3     3260     TIP3     H2       HT       0.417000       1.00800           0
     27116 TIP3     3261     TIP3     OH2      OT      -0.834000       15.9994           0
     27117 TIP3     3261     TIP3     H1       HT       0.417000       1.00800           0
     27118 TIP3     3261     TIP3     H2       HT       0.417000       1.00800           0
     27119 TIP3     3262     TIP3     OH2      OT      -0.834000       15.9994           0
     27120 TIP3     3262     TIP3     H1       HT       0.417000       1.00800           0
     27121 TIP3     3262     TIP3     H2       HT       0.417000       1.00800           0
     27122 TIP3     3263     TIP3     OH2      OT      -0.834000       15.9994           0
     27123 TIP3     3263     TIP3     H1       HT       0.417000       1.00800           0
     27124 TIP3     3263     TIP3     H2       HT       0.417000       1.00800           0
     27125 TIP3     3264     TIP3     OH2      OT      -0.834000       15.9994           0
     27126 TIP3     3264     TIP3     H1       HT       0.417000       1.00800           0
     27127 TIP3     3264     TIP3     H2       HT       0.417000       1.00800           0
     27128 TIP3     3265     TIP3     OH2      OT      -0.834000       15.9994           0
     27129 TIP3     3265     TIP3     H1       HT       0.417000       1.00800           0
     27130 TIP3     3265     TIP3     H2       HT       0.417000       1.00800           0
     27131 TIP3     3266     TIP3     OH2      OT      -0.834000       15.9994           0
     27132 TIP3     3266     TIP3     H1       HT       0.417000       1.00800           0
     27133 TIP3     3266     TIP3     H2       HT       0.417000       1.00800           0
     27134 TIP3     3267     TIP3     OH2      OT      -0.834000       15.9994           0
     27135 TIP3     3267     TIP3     H1       HT       0.417000       1.00800           0
     27136 TIP3     3267     TIP3     H2       HT       0.417000       1.00800           0
     27137 TIP3     3268     TIP3     OH2      OT      -0.834000       15.9994           0
     27138 TIP3     3268     TIP3     H1       HT       0.417000       1.00800           0
     27139 TIP3     3268     TIP3     H2       HT       0.417000       1.00800           0
     27140 TIP3     3269     TIP3     OH2      OT      -0.834000       15.9994           0
     27141 TIP3     3269     TIP3     H1       HT       0.417000       1.00800           0
     27142 TIP3     3269     TIP3     H2       HT       0.417000       1.00800           0
     27143 TIP3     3270     TIP3     OH2      OT      -0.834000       15.9994           0
     27144 TIP3     3270     TIP3     H1       HT       0.417000       1.00800           0
     27145 TIP3     3270     TIP3     H2       HT       0.417000       1.00800           0
     27146 TIP3     3271     TIP3     OH2      OT      -0.834000       15.9994           0
     27147 TIP3     3271     TIP3     H1       HT       0.417000       1.00800           0
     27148 TIP3     3271     TIP3     H2       HT       0.417000       1.00800           0
     27149 TIP3     3272     TIP3     OH2      OT      -0.834000       15.9994           0
     27150 TIP3     3272     TIP3     H1       HT       0.417000       1.00800           0
     27151 TIP3     3272     TIP3     H2       HT       0.417000       1.00800           0
     27152 TIP3     3273     TIP3     OH2      OT      -0.834000       15.9994           0
     27153 TIP3     3273     TIP3     H1       HT       0.417000       1.00800           0
     27154 TIP3     3273     TIP3     H2       HT       0.417000       1.00800           0
     27155 TIP3     3274     TIP3     OH2      OT      -0.834000       15.9994           0
     27156 TIP3     3274     TIP3     H1       HT       0.417000       1.00800           0
     27157 TIP3     3274     TIP3     H2       HT       0.417000       1.00800           0
     27158 TIP3     3275     TIP3     OH2      OT      -0.834000       15.9994           0
     27159 TIP3     3275     TIP3     H1       HT       0.417000       1.00800           0
     27160 TIP3     3275     TIP3     H2       HT       0.417000       1.00800           0
     27161 TIP3     3276     TIP3     OH2      OT      -0.834000       15.9994           0
     27162 TIP3     3276     TIP3     H1       HT       0.417000       1.00800           0
     27163 TIP3     3276     TIP3     H2       HT       0.417000       1.00800           0
     27164 TIP3     3277     TIP3     OH2      OT      -0.834000       15.9994           0
     27165 TIP3     3277     TIP3     H1       HT       0.417000       1.00800           0
     27166 TIP3     3277     TIP3     H2       HT       0.417000       1.00800           0
     27167 TIP3     3278     TIP3     OH2      OT      -0.834000       15.9994           0
     27168 TIP3     3278     TIP3     H1       HT       0.417000       1.00800           0
     27169 TIP3     3278     TIP3     H2       HT       0.417000       1.00800           0
     27170 TIP3     3279     TIP3     OH2      OT      -0.834000       15.9994           0
     27171 TIP3     3279     TIP3     H1       HT       0.417000       1.00800           0
     27172 TIP3     3279     TIP3     H2       HT       0.417000       1.00800           0
     27173 TIP3     3280     TIP3     OH2      OT      -0.834000       15.9994           0
     27174 TIP3     3280     TIP3     H1       HT       0.417000       1.00800           0
     27175 TIP3     3280     TIP3     H2       HT       0.417000       1.00800           0
     27176 TIP3     3281     TIP3     OH2      OT      -0.834000       15.9994           0
     27177 TIP3     3281     TIP3     H1       HT       0.417000       1.00800           0
     27178 TIP3     3281     TIP3     H2       HT       0.417000       1.00800           0
     27179 TIP3     3282     TIP3     OH2      OT      -0.834000       15.9994           0
     27180 TIP3     3282     TIP3     H1       HT       0.417000       1.00800           0
     27181 TIP3     3282     TIP3     H2       HT       0.417000       1.00800           0
     27182 TIP3     3283     TIP3     OH2      OT      -0.834000       15.9994           0
     27183 TIP3     3283     TIP3     H1       HT       0.417000       1.00800           0
     27184 TIP3     3283     TIP3     H2       HT       0.417000       1.00800           0
     27185 TIP3     3284     TIP3     OH2      OT      -0.834000       15.9994           0
     27186 TIP3     3284     TIP3     H1       HT       0.417000       1.00800           0
     27187 TIP3     3284     TIP3     H2       HT       0.417000       1.00800           0
     27188 TIP3     3285     TIP3     OH2      OT      -0.834000       15.9994           0
     27189 TIP3     3285     TIP3     H1       HT       0.417000       1.00800           0
     27190 TIP3     3285     TIP3     H2       HT       0.417000       1.00800           0
     27191 TIP3     3286     TIP3     OH2      OT      -0.834000       15.9994           0
     27192 TIP3     3286     TIP3     H1       HT       0.417000       1.00800           0
     27193 TIP3     3286     TIP3     H2       HT       0.417000       1.00800           0
     27194 TIP3     3287     TIP3     OH2      OT      -0.834000       15.9994           0
     27195 TIP3     3287     TIP3     H1       HT       0.417000       1.00800           0
     27196 TIP3     3287     TIP3     H2       HT       0.417000       1.00800           0
     27197 TIP3     3288     TIP3     OH2      OT      -0.834000       15.9994           0
     27198 TIP3     3288     TIP3     H1       HT       0.417000       1.00800           0
     27199 TIP3     3288     TIP3     H2       HT       0.417000       1.00800           0
     27200 TIP3     3289     TIP3     OH2      OT      -0.834000       15.9994           0
     27201 TIP3     3289     TIP3     H1       HT       0.417000       1.00800           0
     27202 TIP3     3289     TIP3     H2       HT       0.417000       1.00800           0
     27203 TIP3     3290     TIP3     OH2      OT      -0.834000       15.9994           0
     27204 TIP3     3290     TIP3     H1       HT       0.417000       1.00800           0
     27205 TIP3     3290     TIP3     H2       HT       0.417000       1.00800           0
     27206 TIP3     3291     TIP3     OH2      OT      -0.834000       15.9994           0
     27207 TIP3     3291     TIP3     H1       HT       0.417000       1.00800           0
     27208 TIP3     3291     TIP3     H2       HT       0.417000       1.00800           0
     27209 TIP3     3292     TIP3     OH2      OT      -0.834000       15.9994           0
     27210 TIP3     3292     TIP3     H1       HT       0.417000       1.00800           0
     27211 TIP3     3292     TIP3     H2       HT       0.417000       1.00800           0
     27212 TIP3     3293     TIP3     OH2      OT      -0.834000       15.9994           0
     27213 TIP3     3293     TIP3     H1       HT       0.417000       1.00800           0
     27214 TIP3     3293     TIP3     H2       HT       0.417000       1.00800           0
     27215 TIP3     3294     TIP3     OH2      OT      -0.834000       15.9994           0
     27216 TIP3     3294     TIP3     H1       HT       0.417000       1.00800           0
     27217 TIP3     3294     TIP3     H2       HT       0.417000       1.00800           0
     27218 TIP3     3295     TIP3     OH2      OT      -0.834000       15.9994           0
     27219 TIP3     3295     TIP3     H1       HT       0.417000       1.00800           0
     27220 TIP3     3295     TIP3     H2       HT       0.417000       1.00800           0
     27221 TIP3     3296     TIP3     OH2      OT      -0.834000       15.9994           0
     27222 TIP3     3296     TIP3     H1       HT       0.417000       1.00800           0
     27223 TIP3     3296     TIP3     H2       HT       0.417000       1.00800           0
     27224 TIP3     3297     TIP3     OH2      OT      -0.834000       15.9994           0
     27225 TIP3     3297     TIP3     H1       HT       0.417000       1.00800           0
     27226 TIP3     3297     TIP3     H2       HT       0.417000       1.00800           0
     27227 TIP3     3298     TIP3     OH2      OT      -0.834000       15.9994           0
     27228 TIP3     3298     TIP3     H1       HT       0.417000       1.00800           0
     27229 TIP3     3298     TIP3     H2       HT       0.417000       1.00800           0
     27230 TIP3     3299     TIP3     OH2      OT      -0.834000       15.9994           0
     27231 TIP3     3299     TIP3     H1       HT       0.417000       1.00800           0
     27232 TIP3     3299     TIP3     H2       HT       0.417000       1.00800           0
     27233 TIP3     3300     TIP3     OH2      OT      -0.834000       15.9994           0
     27234 TIP3     3300     TIP3     H1       HT       0.417000       1.00800           0
     27235 TIP3     3300     TIP3     H2       HT       0.417000       1.00800           0
     27236 TIP3     3301     TIP3     OH2      OT      -0.834000       15.9994           0
     27237 TIP3     3301     TIP3     H1       HT       0.417000       1.00800           0
     27238 TIP3     3301     TIP3     H2       HT       0.417000       1.00800           0
     27239 TIP3     3302     TIP3     OH2      OT      -0.834000       15.9994           0
     27240 TIP3     3302     TIP3     H1       HT       0.417000       1.00800           0
     27241 TIP3     3302     TIP3     H2       HT       0.417000       1.00800           0
     27242 TIP3     3303     TIP3     OH2      OT      -0.834000       15.9994           0
     27243 TIP3     3303     TIP3     H1       HT       0.417000       1.00800           0
     27244 TIP3     3303     TIP3     H2       HT       0.417000       1.00800           0
     27245 TIP3     3304     TIP3     OH2      OT      -0.834000       15.9994           0
     27246 TIP3     3304     TIP3     H1       HT       0.417000       1.00800           0
     27247 TIP3     3304     TIP3     H2       HT       0.417000       1.00800           0
     27248 TIP3     3305     TIP3     OH2      OT      -0.834000       15.9994           0
     27249 TIP3     3305     TIP3     H1       HT       0.417000       1.00800           0
     27250 TIP3     3305     TIP3     H2       HT       0.417000       1.00800           0
     27251 TIP3     3306     TIP3     OH2      OT      -0.834000       15.9994           0
     27252 TIP3     3306     TIP3     H1       HT       0.417000       1.00800           0
     27253 TIP3     3306     TIP3     H2       HT       0.417000       1.00800           0
     27254 TIP3     3307     TIP3     OH2      OT      -0.834000       15.9994           0
     27255 TIP3     3307     TIP3     H1       HT       0.417000       1.00800           0
     27256 TIP3     3307     TIP3     H2       HT       0.417000       1.00800           0
     27257 TIP3     3308     TIP3     OH2      OT      -0.834000       15.9994           0
     27258 TIP3     3308     TIP3     H1       HT       0.417000       1.00800           0
     27259 TIP3     3308     TIP3     H2       HT       0.417000       1.00800           0
     27260 TIP3     3309     TIP3     OH2      OT      -0.834000       15.9994           0
     27261 TIP3     3309     TIP3     H1       HT       0.417000       1.00800           0
     27262 TIP3     3309     TIP3     H2       HT       0.417000       1.00800           0
     27263 TIP3     3310     TIP3     OH2      OT      -0.834000       15.9994           0
     27264 TIP3     3310     TIP3     H1       HT       0.417000       1.00800           0
     27265 TIP3     3310     TIP3     H2       HT       0.417000       1.00800           0
     27266 TIP3     3311     TIP3     OH2      OT      -0.834000       15.9994           0
     27267 TIP3     3311     TIP3     H1       HT       0.417000       1.00800           0
     27268 TIP3     3311     TIP3     H2       HT       0.417000       1.00800           0
     27269 TIP3     3312     TIP3     OH2      OT      -0.834000       15.9994           0
     27270 TIP3     3312     TIP3     H1       HT       0.417000       1.00800           0
     27271 TIP3     3312     TIP3     H2       HT       0.417000       1.00800           0
     27272 TIP3     3313     TIP3     OH2      OT      -0.834000       15.9994           0
     27273 TIP3     3313     TIP3     H1       HT       0.417000       1.00800           0
     27274 TIP3     3313     TIP3     H2       HT       0.417000       1.00800           0
     27275 TIP3     3314     TIP3     OH2      OT      -0.834000       15.9994           0
     27276 TIP3     3314     TIP3     H1       HT       0.417000       1.00800           0
     27277 TIP3     3314     TIP3     H2       HT       0.417000       1.00800           0
     27278 TIP3     3315     TIP3     OH2      OT      -0.834000       15.9994           0
     27279 TIP3     3315     TIP3     H1       HT       0.417000       1.00800           0
     27280 TIP3     3315     TIP3     H2       HT       0.417000       1.00800           0
     27281 TIP3     3316     TIP3     OH2      OT      -0.834000       15.9994           0
     27282 TIP3     3316     TIP3     H1       HT       0.417000       1.00800           0
     27283 TIP3     3316     TIP3     H2       HT       0.417000       1.00800           0
     27284 TIP3     3317     TIP3     OH2      OT      -0.834000       15.9994           0
     27285 TIP3     3317     TIP3     H1       HT       0.417000       1.00800           0
     27286 TIP3     3317     TIP3     H2       HT       0.417000       1.00800           0
     27287 TIP3     3318     TIP3     OH2      OT      -0.834000       15.9994           0
     27288 TIP3     3318     TIP3     H1       HT       0.417000       1.00800           0
     27289 TIP3     3318     TIP3     H2       HT       0.417000       1.00800           0
     27290 TIP3     3319     TIP3     OH2      OT      -0.834000       15.9994           0
     27291 TIP3     3319     TIP3     H1       HT       0.417000       1.00800           0
     27292 TIP3     3319     TIP3     H2       HT       0.417000       1.00800           0
     27293 TIP3     3320     TIP3     OH2      OT      -0.834000       15.9994           0
     27294 TIP3     3320     TIP3     H1       HT       0.417000       1.00800           0
     27295 TIP3     3320     TIP3     H2       HT       0.417000       1.00800           0
     27296 TIP3     3321     TIP3     OH2      OT      -0.834000       15.9994           0
     27297 TIP3     3321     TIP3     H1       HT       0.417000       1.00800           0
     27298 TIP3     3321     TIP3     H2       HT       0.417000       1.00800           0
     27299 TIP3     3322     TIP3     OH2      OT      -0.834000       15.9994           0
     27300 TIP3     3322     TIP3     H1       HT       0.417000       1.00800           0
     27301 TIP3     3322     TIP3     H2       HT       0.417000       1.00800           0
     27302 TIP3     3323     TIP3     OH2      OT      -0.834000       15.9994           0
     27303 TIP3     3323     TIP3     H1       HT       0.417000       1.00800           0
     27304 TIP3     3323     TIP3     H2       HT       0.417000       1.00800           0
     27305 TIP3     3324     TIP3     OH2      OT      -0.834000       15.9994           0
     27306 TIP3     3324     TIP3     H1       HT       0.417000       1.00800           0
     27307 TIP3     3324     TIP3     H2       HT       0.417000       1.00800           0
     27308 TIP3     3325     TIP3     OH2      OT      -0.834000       15.9994           0
     27309 TIP3     3325     TIP3     H1       HT       0.417000       1.00800           0
     27310 TIP3     3325     TIP3     H2       HT       0.417000       1.00800           0
     27311 TIP3     3326     TIP3     OH2      OT      -0.834000       15.9994           0
     27312 TIP3     3326     TIP3     H1       HT       0.417000       1.00800           0
     27313 TIP3     3326     TIP3     H2       HT       0.417000       1.00800           0
     27314 TIP3     3327     TIP3     OH2      OT      -0.834000       15.9994           0
     27315 TIP3     3327     TIP3     H1       HT       0.417000       1.00800           0
     27316 TIP3     3327     TIP3     H2       HT       0.417000       1.00800           0
     27317 TIP3     3328     TIP3     OH2      OT      -0.834000       15.9994           0
     27318 TIP3     3328     TIP3     H1       HT       0.417000       1.00800           0
     27319 TIP3     3328     TIP3     H2       HT       0.417000       1.00800           0
     27320 TIP3     3329     TIP3     OH2      OT      -0.834000       15.9994           0
     27321 TIP3     3329     TIP3     H1       HT       0.417000       1.00800           0
     27322 TIP3     3329     TIP3     H2       HT       0.417000       1.00800           0
     27323 TIP3     3330     TIP3     OH2      OT      -0.834000       15.9994           0
     27324 TIP3     3330     TIP3     H1       HT       0.417000       1.00800           0
     27325 TIP3     3330     TIP3     H2       HT       0.417000       1.00800           0
     27326 TIP3     3331     TIP3     OH2      OT      -0.834000       15.9994           0
     27327 TIP3     3331     TIP3     H1       HT       0.417000       1.00800           0
     27328 TIP3     3331     TIP3     H2       HT       0.417000       1.00800           0
     27329 TIP3     3332     TIP3     OH2      OT      -0.834000       15.9994           0
     27330 TIP3     3332     TIP3     H1       HT       0.417000       1.00800           0
     27331 TIP3     3332     TIP3     H2       HT       0.417000       1.00800           0
     27332 TIP3     3333     TIP3     OH2      OT      -0.834000       15.9994           0
     27333 TIP3     3333     TIP3     H1       HT       0.417000       1.00800           0
     27334 TIP3     3333     TIP3     H2       HT       0.417000       1.00800           0
     27335 TIP3     3334     TIP3     OH2      OT      -0.834000       15.9994           0
     27336 TIP3     3334     TIP3     H1       HT       0.417000       1.00800           0
     27337 TIP3     3334     TIP3     H2       HT       0.417000       1.00800           0
     27338 TIP3     3335     TIP3     OH2      OT      -0.834000       15.9994           0
     27339 TIP3     3335     TIP3     H1       HT       0.417000       1.00800           0
     27340 TIP3     3335     TIP3     H2       HT       0.417000       1.00800           0
     27341 TIP3     3336     TIP3     OH2      OT      -0.834000       15.9994           0
     27342 TIP3     3336     TIP3     H1       HT       0.417000       1.00800           0
     27343 TIP3     3336     TIP3     H2       HT       0.417000       1.00800           0
     27344 TIP3     3337     TIP3     OH2      OT      -0.834000       15.9994           0
     27345 TIP3     3337     TIP3     H1       HT       0.417000       1.00800           0
     27346 TIP3     3337     TIP3     H2       HT       0.417000       1.00800           0
     27347 TIP3     3338     TIP3     OH2      OT      -0.834000       15.9994           0
     27348 TIP3     3338     TIP3     H1       HT       0.417000       1.00800           0
     27349 TIP3     3338     TIP3     H2       HT       0.417000       1.00800           0
     27350 TIP3     3339     TIP3     OH2      OT      -0.834000       15.9994           0
     27351 TIP3     3339     TIP3     H1       HT       0.417000       1.00800           0
     27352 TIP3     3339     TIP3     H2       HT       0.417000       1.00800           0
     27353 TIP3     3340     TIP3     OH2      OT      -0.834000       15.9994           0
     27354 TIP3     3340     TIP3     H1       HT       0.417000       1.00800           0
     27355 TIP3     3340     TIP3     H2       HT       0.417000       1.00800           0
     27356 TIP3     3341     TIP3     OH2      OT      -0.834000       15.9994           0
     27357 TIP3     3341     TIP3     H1       HT       0.417000       1.00800           0
     27358 TIP3     3341     TIP3     H2       HT       0.417000       1.00800           0
     27359 TIP3     3342     TIP3     OH2      OT      -0.834000       15.9994           0
     27360 TIP3     3342     TIP3     H1       HT       0.417000       1.00800           0
     27361 TIP3     3342     TIP3     H2       HT       0.417000       1.00800           0
     27362 TIP3     3343     TIP3     OH2      OT      -0.834000       15.9994           0
     27363 TIP3     3343     TIP3     H1       HT       0.417000       1.00800           0
     27364 TIP3     3343     TIP3     H2       HT       0.417000       1.00800           0
     27365 TIP3     3344     TIP3     OH2      OT      -0.834000       15.9994           0
     27366 TIP3     3344     TIP3     H1       HT       0.417000       1.00800           0
     27367 TIP3     3344     TIP3     H2       HT       0.417000       1.00800           0
     27368 TIP3     3345     TIP3     OH2      OT      -0.834000       15.9994           0
     27369 TIP3     3345     TIP3     H1       HT       0.417000       1.00800           0
     27370 TIP3     3345     TIP3     H2       HT       0.417000       1.00800           0
     27371 TIP3     3346     TIP3     OH2      OT      -0.834000       15.9994           0
     27372 TIP3     3346     TIP3     H1       HT       0.417000       1.00800           0
     27373 TIP3     3346     TIP3     H2       HT       0.417000       1.00800           0
     27374 TIP3     3347     TIP3     OH2      OT      -0.834000       15.9994           0
     27375 TIP3     3347     TIP3     H1       HT       0.417000       1.00800           0
     27376 TIP3     3347     TIP3     H2       HT       0.417000       1.00800           0
     27377 TIP3     3348     TIP3     OH2      OT      -0.834000       15.9994           0
     27378 TIP3     3348     TIP3     H1       HT       0.417000       1.00800           0
     27379 TIP3     3348     TIP3     H2       HT       0.417000       1.00800           0
     27380 TIP3     3349     TIP3     OH2      OT      -0.834000       15.9994           0
     27381 TIP3     3349     TIP3     H1       HT       0.417000       1.00800           0
     27382 TIP3     3349     TIP3     H2       HT       0.417000       1.00800           0
     27383 TIP3     3350     TIP3     OH2      OT      -0.834000       15.9994           0
     27384 TIP3     3350     TIP3     H1       HT       0.417000       1.00800           0
     27385 TIP3     3350     TIP3     H2       HT       0.417000       1.00800           0
     27386 TIP3     3351     TIP3     OH2      OT      -0.834000       15.9994           0
     27387 TIP3     3351     TIP3     H1       HT       0.417000       1.00800           0
     27388 TIP3     3351     TIP3     H2       HT       0.417000       1.00800           0
     27389 TIP3     3352     TIP3     OH2      OT      -0.834000       15.9994           0
     27390 TIP3     3352     TIP3     H1       HT       0.417000       1.00800           0
     27391 TIP3     3352     TIP3     H2       HT       0.417000       1.00800           0
     27392 TIP3     3353     TIP3     OH2      OT      -0.834000       15.9994           0
     27393 TIP3     3353     TIP3     H1       HT       0.417000       1.00800           0
     27394 TIP3     3353     TIP3     H2       HT       0.417000       1.00800           0
     27395 TIP3     3354     TIP3     OH2      OT      -0.834000       15.9994           0
     27396 TIP3     3354     TIP3     H1       HT       0.417000       1.00800           0
     27397 TIP3     3354     TIP3     H2       HT       0.417000       1.00800           0
     27398 TIP3     3355     TIP3     OH2      OT      -0.834000       15.9994           0
     27399 TIP3     3355     TIP3     H1       HT       0.417000       1.00800           0
     27400 TIP3     3355     TIP3     H2       HT       0.417000       1.00800           0
     27401 TIP3     3356     TIP3     OH2      OT      -0.834000       15.9994           0
     27402 TIP3     3356     TIP3     H1       HT       0.417000       1.00800           0
     27403 TIP3     3356     TIP3     H2       HT       0.417000       1.00800           0
     27404 TIP3     3357     TIP3     OH2      OT      -0.834000       15.9994           0
     27405 TIP3     3357     TIP3     H1       HT       0.417000       1.00800           0
     27406 TIP3     3357     TIP3     H2       HT       0.417000       1.00800           0
     27407 TIP3     3358     TIP3     OH2      OT      -0.834000       15.9994           0
     27408 TIP3     3358     TIP3     H1       HT       0.417000       1.00800           0
     27409 TIP3     3358     TIP3     H2       HT       0.417000       1.00800           0
     27410 TIP3     3359     TIP3     OH2      OT      -0.834000       15.9994           0
     27411 TIP3     3359     TIP3     H1       HT       0.417000       1.00800           0
     27412 TIP3     3359     TIP3     H2       HT       0.417000       1.00800           0
     27413 TIP3     3360     TIP3     OH2      OT      -0.834000       15.9994           0
     27414 TIP3     3360     TIP3     H1       HT       0.417000       1.00800           0
     27415 TIP3     3360     TIP3     H2       HT       0.417000       1.00800           0
     27416 TIP3     3361     TIP3     OH2      OT      -0.834000       15.9994           0
     27417 TIP3     3361     TIP3     H1       HT       0.417000       1.00800           0
     27418 TIP3     3361     TIP3     H2       HT       0.417000       1.00800           0
     27419 TIP3     3362     TIP3     OH2      OT      -0.834000       15.9994           0
     27420 TIP3     3362     TIP3     H1       HT       0.417000       1.00800           0
     27421 TIP3     3362     TIP3     H2       HT       0.417000       1.00800           0
     27422 TIP3     3363     TIP3     OH2      OT      -0.834000       15.9994           0
     27423 TIP3     3363     TIP3     H1       HT       0.417000       1.00800           0
     27424 TIP3     3363     TIP3     H2       HT       0.417000       1.00800           0
     27425 TIP3     3364     TIP3     OH2      OT      -0.834000       15.9994           0
     27426 TIP3     3364     TIP3     H1       HT       0.417000       1.00800           0
     27427 TIP3     3364     TIP3     H2       HT       0.417000       1.00800           0
     27428 TIP3     3365     TIP3     OH2      OT      -0.834000       15.9994           0
     27429 TIP3     3365     TIP3     H1       HT       0.417000       1.00800           0
     27430 TIP3     3365     TIP3     H2       HT       0.417000       1.00800           0
     27431 TIP3     3366     TIP3     OH2      OT      -0.834000       15.9994           0
     27432 TIP3     3366     TIP3     H1       HT       0.417000       1.00800           0
     27433 TIP3     3366     TIP3     H2       HT       0.417000       1.00800           0
     27434 TIP3     3367     TIP3     OH2      OT      -0.834000       15.9994           0
     27435 TIP3     3367     TIP3     H1       HT       0.417000       1.00800           0
     27436 TIP3     3367     TIP3     H2       HT       0.417000       1.00800           0
     27437 TIP3     3368     TIP3     OH2      OT      -0.834000       15.9994           0
     27438 TIP3     3368     TIP3     H1       HT       0.417000       1.00800           0
     27439 TIP3     3368     TIP3     H2       HT       0.417000       1.00800           0
     27440 TIP3     3369     TIP3     OH2      OT      -0.834000       15.9994           0
     27441 TIP3     3369     TIP3     H1       HT       0.417000       1.00800           0
     27442 TIP3     3369     TIP3     H2       HT       0.417000       1.00800           0
     27443 TIP3     3370     TIP3     OH2      OT      -0.834000       15.9994           0
     27444 TIP3     3370     TIP3     H1       HT       0.417000       1.00800           0
     27445 TIP3     3370     TIP3     H2       HT       0.417000       1.00800           0
     27446 TIP3     3371     TIP3     OH2      OT      -0.834000       15.9994           0
     27447 TIP3     3371     TIP3     H1       HT       0.417000       1.00800           0
     27448 TIP3     3371     TIP3     H2       HT       0.417000       1.00800           0
     27449 TIP3     3372     TIP3     OH2      OT      -0.834000       15.9994           0
     27450 TIP3     3372     TIP3     H1       HT       0.417000       1.00800           0
     27451 TIP3     3372     TIP3     H2       HT       0.417000       1.00800           0
     27452 TIP3     3373     TIP3     OH2      OT      -0.834000       15.9994           0
     27453 TIP3     3373     TIP3     H1       HT       0.417000       1.00800           0
     27454 TIP3     3373     TIP3     H2       HT       0.417000       1.00800           0
     27455 TIP3     3374     TIP3     OH2      OT      -0.834000       15.9994           0
     27456 TIP3     3374     TIP3     H1       HT       0.417000       1.00800           0
     27457 TIP3     3374     TIP3     H2       HT       0.417000       1.00800           0
     27458 TIP3     3375     TIP3     OH2      OT      -0.834000       15.9994           0
     27459 TIP3     3375     TIP3     H1       HT       0.417000       1.00800           0
     27460 TIP3     3375     TIP3     H2       HT       0.417000       1.00800           0
     27461 TIP3     3376     TIP3     OH2      OT      -0.834000       15.9994           0
     27462 TIP3     3376     TIP3     H1       HT       0.417000       1.00800           0
     27463 TIP3     3376     TIP3     H2       HT       0.417000       1.00800           0
     27464 TIP3     3377     TIP3     OH2      OT      -0.834000       15.9994           0
     27465 TIP3     3377     TIP3     H1       HT       0.417000       1.00800           0
     27466 TIP3     3377     TIP3     H2       HT       0.417000       1.00800           0
     27467 TIP3     3378     TIP3     OH2      OT      -0.834000       15.9994           0
     27468 TIP3     3378     TIP3     H1       HT       0.417000       1.00800           0
     27469 TIP3     3378     TIP3     H2       HT       0.417000       1.00800           0
     27470 TIP3     3379     TIP3     OH2      OT      -0.834000       15.9994           0
     27471 TIP3     3379     TIP3     H1       HT       0.417000       1.00800           0
     27472 TIP3     3379     TIP3     H2       HT       0.417000       1.00800           0
     27473 TIP3     3380     TIP3     OH2      OT      -0.834000       15.9994           0
     27474 TIP3     3380     TIP3     H1       HT       0.417000       1.00800           0
     27475 TIP3     3380     TIP3     H2       HT       0.417000       1.00800           0
     27476 TIP3     3381     TIP3     OH2      OT      -0.834000       15.9994           0
     27477 TIP3     3381     TIP3     H1       HT       0.417000       1.00800           0
     27478 TIP3     3381     TIP3     H2       HT       0.417000       1.00800           0
     27479 TIP3     3382     TIP3     OH2      OT      -0.834000       15.9994           0
     27480 TIP3     3382     TIP3     H1       HT       0.417000       1.00800           0
     27481 TIP3     3382     TIP3     H2       HT       0.417000       1.00800           0
     27482 TIP3     3383     TIP3     OH2      OT      -0.834000       15.9994           0
     27483 TIP3     3383     TIP3     H1       HT       0.417000       1.00800           0
     27484 TIP3     3383     TIP3     H2       HT       0.417000       1.00800           0
     27485 TIP3     3384     TIP3     OH2      OT      -0.834000       15.9994           0
     27486 TIP3     3384     TIP3     H1       HT       0.417000       1.00800           0
     27487 TIP3     3384     TIP3     H2       HT       0.417000       1.00800           0
     27488 TIP3     3385     TIP3     OH2      OT      -0.834000       15.9994           0
     27489 TIP3     3385     TIP3     H1       HT       0.417000       1.00800           0
     27490 TIP3     3385     TIP3     H2       HT       0.417000       1.00800           0
     27491 TIP3     3386     TIP3     OH2      OT      -0.834000       15.9994           0
     27492 TIP3     3386     TIP3     H1       HT       0.417000       1.00800           0
     27493 TIP3     3386     TIP3     H2       HT       0.417000       1.00800           0
     27494 TIP3     3387     TIP3     OH2      OT      -0.834000       15.9994           0
     27495 TIP3     3387     TIP3     H1       HT       0.417000       1.00800           0
     27496 TIP3     3387     TIP3     H2       HT       0.417000       1.00800           0
     27497 TIP3     3388     TIP3     OH2      OT      -0.834000       15.9994           0
     27498 TIP3     3388     TIP3     H1       HT       0.417000       1.00800           0
     27499 TIP3     3388     TIP3     H2       HT       0.417000       1.00800           0
     27500 TIP3     3389     TIP3     OH2      OT      -0.834000       15.9994           0
     27501 TIP3     3389     TIP3     H1       HT       0.417000       1.00800           0
     27502 TIP3     3389     TIP3     H2       HT       0.417000       1.00800           0
     27503 TIP3     3390     TIP3     OH2      OT      -0.834000       15.9994           0
     27504 TIP3     3390     TIP3     H1       HT       0.417000       1.00800           0
     27505 TIP3     3390     TIP3     H2       HT       0.417000       1.00800           0
     27506 TIP3     3391     TIP3     OH2      OT      -0.834000       15.9994           0
     27507 TIP3     3391     TIP3     H1       HT       0.417000       1.00800           0
     27508 TIP3     3391     TIP3     H2       HT       0.417000       1.00800           0
     27509 TIP3     3392     TIP3     OH2      OT      -0.834000       15.9994           0
     27510 TIP3     3392     TIP3     H1       HT       0.417000       1.00800           0
     27511 TIP3     3392     TIP3     H2       HT       0.417000       1.00800           0
     27512 TIP3     3393     TIP3     OH2      OT      -0.834000       15.9994           0
     27513 TIP3     3393     TIP3     H1       HT       0.417000       1.00800           0
     27514 TIP3     3393     TIP3     H2       HT       0.417000       1.00800           0
     27515 TIP3     3394     TIP3     OH2      OT      -0.834000       15.9994           0
     27516 TIP3     3394     TIP3     H1       HT       0.417000       1.00800           0
     27517 TIP3     3394     TIP3     H2       HT       0.417000       1.00800           0
     27518 TIP3     3395     TIP3     OH2      OT      -0.834000       15.9994           0
     27519 TIP3     3395     TIP3     H1       HT       0.417000       1.00800           0
     27520 TIP3     3395     TIP3     H2       HT       0.417000       1.00800           0
     27521 TIP3     3396     TIP3     OH2      OT      -0.834000       15.9994           0
     27522 TIP3     3396     TIP3     H1       HT       0.417000       1.00800           0
     27523 TIP3     3396     TIP3     H2       HT       0.417000       1.00800           0
     27524 TIP3     3397     TIP3     OH2      OT      -0.834000       15.9994           0
     27525 TIP3     3397     TIP3     H1       HT       0.417000       1.00800           0
     27526 TIP3     3397     TIP3     H2       HT       0.417000       1.00800           0
     27527 TIP3     3398     TIP3     OH2      OT      -0.834000       15.9994           0
     27528 TIP3     3398     TIP3     H1       HT       0.417000       1.00800           0
     27529 TIP3     3398     TIP3     H2       HT       0.417000       1.00800           0
     27530 TIP3     3399     TIP3     OH2      OT      -0.834000       15.9994           0
     27531 TIP3     3399     TIP3     H1       HT       0.417000       1.00800           0
     27532 TIP3     3399     TIP3     H2       HT       0.417000       1.00800           0
     27533 TIP3     3400     TIP3     OH2      OT      -0.834000       15.9994           0
     27534 TIP3     3400     TIP3     H1       HT       0.417000       1.00800           0
     27535 TIP3     3400     TIP3     H2       HT       0.417000       1.00800           0
     27536 TIP3     3401     TIP3     OH2      OT      -0.834000       15.9994           0
     27537 TIP3     3401     TIP3     H1       HT       0.417000       1.00800           0
     27538 TIP3     3401     TIP3     H2       HT       0.417000       1.00800           0
     27539 TIP3     3402     TIP3     OH2      OT      -0.834000       15.9994           0
     27540 TIP3     3402     TIP3     H1       HT       0.417000       1.00800           0
     27541 TIP3     3402     TIP3     H2       HT       0.417000       1.00800           0
     27542 TIP3     3403     TIP3     OH2      OT      -0.834000       15.9994           0
     27543 TIP3     3403     TIP3     H1       HT       0.417000       1.00800           0
     27544 TIP3     3403     TIP3     H2       HT       0.417000       1.00800           0
     27545 TIP3     3404     TIP3     OH2      OT      -0.834000       15.9994           0
     27546 TIP3     3404     TIP3     H1       HT       0.417000       1.00800           0
     27547 TIP3     3404     TIP3     H2       HT       0.417000       1.00800           0
     27548 TIP3     3405     TIP3     OH2      OT      -0.834000       15.9994           0
     27549 TIP3     3405     TIP3     H1       HT       0.417000       1.00800           0
     27550 TIP3     3405     TIP3     H2       HT       0.417000       1.00800           0
     27551 TIP3     3406     TIP3     OH2      OT      -0.834000       15.9994           0
     27552 TIP3     3406     TIP3     H1       HT       0.417000       1.00800           0
     27553 TIP3     3406     TIP3     H2       HT       0.417000       1.00800           0
     27554 TIP3     3407     TIP3     OH2      OT      -0.834000       15.9994           0
     27555 TIP3     3407     TIP3     H1       HT       0.417000       1.00800           0
     27556 TIP3     3407     TIP3     H2       HT       0.417000       1.00800           0
     27557 TIP3     3408     TIP3     OH2      OT      -0.834000       15.9994           0
     27558 TIP3     3408     TIP3     H1       HT       0.417000       1.00800           0
     27559 TIP3     3408     TIP3     H2       HT       0.417000       1.00800           0
     27560 TIP3     3409     TIP3     OH2      OT      -0.834000       15.9994           0
     27561 TIP3     3409     TIP3     H1       HT       0.417000       1.00800           0
     27562 TIP3     3409     TIP3     H2       HT       0.417000       1.00800           0
     27563 TIP3     3410     TIP3     OH2      OT      -0.834000       15.9994           0
     27564 TIP3     3410     TIP3     H1       HT       0.417000       1.00800           0
     27565 TIP3     3410     TIP3     H2       HT       0.417000       1.00800           0
     27566 TIP3     3411     TIP3     OH2      OT      -0.834000       15.9994           0
     27567 TIP3     3411     TIP3     H1       HT       0.417000       1.00800           0
     27568 TIP3     3411     TIP3     H2       HT       0.417000       1.00800           0
     27569 TIP3     3412     TIP3     OH2      OT      -0.834000       15.9994           0
     27570 TIP3     3412     TIP3     H1       HT       0.417000       1.00800           0
     27571 TIP3     3412     TIP3     H2       HT       0.417000       1.00800           0
     27572 TIP3     3413     TIP3     OH2      OT      -0.834000       15.9994           0
     27573 TIP3     3413     TIP3     H1       HT       0.417000       1.00800           0
     27574 TIP3     3413     TIP3     H2       HT       0.417000       1.00800           0
     27575 TIP3     3414     TIP3     OH2      OT      -0.834000       15.9994           0
     27576 TIP3     3414     TIP3     H1       HT       0.417000       1.00800           0
     27577 TIP3     3414     TIP3     H2       HT       0.417000       1.00800           0
     27578 TIP3     3415     TIP3     OH2      OT      -0.834000       15.9994           0
     27579 TIP3     3415     TIP3     H1       HT       0.417000       1.00800           0
     27580 TIP3     3415     TIP3     H2       HT       0.417000       1.00800           0
     27581 TIP3     3416     TIP3     OH2      OT      -0.834000       15.9994           0
     27582 TIP3     3416     TIP3     H1       HT       0.417000       1.00800           0
     27583 TIP3     3416     TIP3     H2       HT       0.417000       1.00800           0
     27584 TIP3     3417     TIP3     OH2      OT      -0.834000       15.9994           0
     27585 TIP3     3417     TIP3     H1       HT       0.417000       1.00800           0
     27586 TIP3     3417     TIP3     H2       HT       0.417000       1.00800           0
     27587 TIP3     3418     TIP3     OH2      OT      -0.834000       15.9994           0
     27588 TIP3     3418     TIP3     H1       HT       0.417000       1.00800           0
     27589 TIP3     3418     TIP3     H2       HT       0.417000       1.00800           0
     27590 TIP3     3419     TIP3     OH2      OT      -0.834000       15.9994           0
     27591 TIP3     3419     TIP3     H1       HT       0.417000       1.00800           0
     27592 TIP3     3419     TIP3     H2       HT       0.417000       1.00800           0
     27593 TIP3     3420     TIP3     OH2      OT      -0.834000       15.9994           0
     27594 TIP3     3420     TIP3     H1       HT       0.417000       1.00800           0
     27595 TIP3     3420     TIP3     H2       HT       0.417000       1.00800           0
     27596 TIP3     3421     TIP3     OH2      OT      -0.834000       15.9994           0
     27597 TIP3     3421     TIP3     H1       HT       0.417000       1.00800           0
     27598 TIP3     3421     TIP3     H2       HT       0.417000       1.00800           0
     27599 TIP3     3422     TIP3     OH2      OT      -0.834000       15.9994           0
     27600 TIP3     3422     TIP3     H1       HT       0.417000       1.00800           0
     27601 TIP3     3422     TIP3     H2       HT       0.417000       1.00800           0
     27602 TIP3     3423     TIP3     OH2      OT      -0.834000       15.9994           0
     27603 TIP3     3423     TIP3     H1       HT       0.417000       1.00800           0
     27604 TIP3     3423     TIP3     H2       HT       0.417000       1.00800           0
     27605 TIP3     3424     TIP3     OH2      OT      -0.834000       15.9994           0
     27606 TIP3     3424     TIP3     H1       HT       0.417000       1.00800           0
     27607 TIP3     3424     TIP3     H2       HT       0.417000       1.00800           0
     27608 TIP3     3425     TIP3     OH2      OT      -0.834000       15.9994           0
     27609 TIP3     3425     TIP3     H1       HT       0.417000       1.00800           0
     27610 TIP3     3425     TIP3     H2       HT       0.417000       1.00800           0
     27611 TIP3     3426     TIP3     OH2      OT      -0.834000       15.9994           0
     27612 TIP3     3426     TIP3     H1       HT       0.417000       1.00800           0
     27613 TIP3     3426     TIP3     H2       HT       0.417000       1.00800           0
     27614 TIP3     3427     TIP3     OH2      OT      -0.834000       15.9994           0
     27615 TIP3     3427     TIP3     H1       HT       0.417000       1.00800           0
     27616 TIP3     3427     TIP3     H2       HT       0.417000       1.00800           0
     27617 TIP3     3428     TIP3     OH2      OT      -0.834000       15.9994           0
     27618 TIP3     3428     TIP3     H1       HT       0.417000       1.00800           0
     27619 TIP3     3428     TIP3     H2       HT       0.417000       1.00800           0
     27620 TIP3     3429     TIP3     OH2      OT      -0.834000       15.9994           0
     27621 TIP3     3429     TIP3     H1       HT       0.417000       1.00800           0
     27622 TIP3     3429     TIP3     H2       HT       0.417000       1.00800           0
     27623 TIP3     3430     TIP3     OH2      OT      -0.834000       15.9994           0
     27624 TIP3     3430     TIP3     H1       HT       0.417000       1.00800           0
     27625 TIP3     3430     TIP3     H2       HT       0.417000       1.00800           0
     27626 TIP3     3431     TIP3     OH2      OT      -0.834000       15.9994           0
     27627 TIP3     3431     TIP3     H1       HT       0.417000       1.00800           0
     27628 TIP3     3431     TIP3     H2       HT       0.417000       1.00800           0
     27629 TIP3     3432     TIP3     OH2      OT      -0.834000       15.9994           0
     27630 TIP3     3432     TIP3     H1       HT       0.417000       1.00800           0
     27631 TIP3     3432     TIP3     H2       HT       0.417000       1.00800           0
     27632 TIP3     3433     TIP3     OH2      OT      -0.834000       15.9994           0
     27633 TIP3     3433     TIP3     H1       HT       0.417000       1.00800           0
     27634 TIP3     3433     TIP3     H2       HT       0.417000       1.00800           0
     27635 TIP3     3434     TIP3     OH2      OT      -0.834000       15.9994           0
     27636 TIP3     3434     TIP3     H1       HT       0.417000       1.00800           0
     27637 TIP3     3434     TIP3     H2       HT       0.417000       1.00800           0
     27638 TIP3     3435     TIP3     OH2      OT      -0.834000       15.9994           0
     27639 TIP3     3435     TIP3     H1       HT       0.417000       1.00800           0
     27640 TIP3     3435     TIP3     H2       HT       0.417000       1.00800           0
     27641 TIP3     3436     TIP3     OH2      OT      -0.834000       15.9994           0
     27642 TIP3     3436     TIP3     H1       HT       0.417000       1.00800           0
     27643 TIP3     3436     TIP3     H2       HT       0.417000       1.00800           0
     27644 TIP3     3437     TIP3     OH2      OT      -0.834000       15.9994           0
     27645 TIP3     3437     TIP3     H1       HT       0.417000       1.00800           0
     27646 TIP3     3437     TIP3     H2       HT       0.417000       1.00800           0
     27647 TIP3     3438     TIP3     OH2      OT      -0.834000       15.9994           0
     27648 TIP3     3438     TIP3     H1       HT       0.417000       1.00800           0
     27649 TIP3     3438     TIP3     H2       HT       0.417000       1.00800           0
     27650 TIP3     3439     TIP3     OH2      OT      -0.834000       15.9994           0
     27651 TIP3     3439     TIP3     H1       HT       0.417000       1.00800           0
     27652 TIP3     3439     TIP3     H2       HT       0.417000       1.00800           0
     27653 TIP3     3440     TIP3     OH2      OT      -0.834000       15.9994           0
     27654 TIP3     3440     TIP3     H1       HT       0.417000       1.00800           0
     27655 TIP3     3440     TIP3     H2       HT       0.417000       1.00800           0
     27656 TIP3     3441     TIP3     OH2      OT      -0.834000       15.9994           0
     27657 TIP3     3441     TIP3     H1       HT       0.417000       1.00800           0
     27658 TIP3     3441     TIP3     H2       HT       0.417000       1.00800           0
     27659 TIP3     3442     TIP3     OH2      OT      -0.834000       15.9994           0
     27660 TIP3     3442     TIP3     H1       HT       0.417000       1.00800           0
     27661 TIP3     3442     TIP3     H2       HT       0.417000       1.00800           0
     27662 TIP3     3443     TIP3     OH2      OT      -0.834000       15.9994           0
     27663 TIP3     3443     TIP3     H1       HT       0.417000       1.00800           0
     27664 TIP3     3443     TIP3     H2       HT       0.417000       1.00800           0
     27665 TIP3     3444     TIP3     OH2      OT      -0.834000       15.9994           0
     27666 TIP3     3444     TIP3     H1       HT       0.417000       1.00800           0
     27667 TIP3     3444     TIP3     H2       HT       0.417000       1.00800           0
     27668 TIP3     3445     TIP3     OH2      OT      -0.834000       15.9994           0
     27669 TIP3     3445     TIP3     H1       HT       0.417000       1.00800           0
     27670 TIP3     3445     TIP3     H2       HT       0.417000       1.00800           0
     27671 TIP3     3446     TIP3     OH2      OT      -0.834000       15.9994           0
     27672 TIP3     3446     TIP3     H1       HT       0.417000       1.00800           0
     27673 TIP3     3446     TIP3     H2       HT       0.417000       1.00800           0
     27674 TIP3     3447     TIP3     OH2      OT      -0.834000       15.9994           0
     27675 TIP3     3447     TIP3     H1       HT       0.417000       1.00800           0
     27676 TIP3     3447     TIP3     H2       HT       0.417000       1.00800           0
     27677 TIP3     3448     TIP3     OH2      OT      -0.834000       15.9994           0
     27678 TIP3     3448     TIP3     H1       HT       0.417000       1.00800           0
     27679 TIP3     3448     TIP3     H2       HT       0.417000       1.00800           0
     27680 TIP3     3449     TIP3     OH2      OT      -0.834000       15.9994           0
     27681 TIP3     3449     TIP3     H1       HT       0.417000       1.00800           0
     27682 TIP3     3449     TIP3     H2       HT       0.417000       1.00800           0
     27683 TIP3     3450     TIP3     OH2      OT      -0.834000       15.9994           0
     27684 TIP3     3450     TIP3     H1       HT       0.417000       1.00800           0
     27685 TIP3     3450     TIP3     H2       HT       0.417000       1.00800           0
     27686 TIP3     3451     TIP3     OH2      OT      -0.834000       15.9994           0
     27687 TIP3     3451     TIP3     H1       HT       0.417000       1.00800           0
     27688 TIP3     3451     TIP3     H2       HT       0.417000       1.00800           0
     27689 TIP3     3452     TIP3     OH2      OT      -0.834000       15.9994           0
     27690 TIP3     3452     TIP3     H1       HT       0.417000       1.00800           0
     27691 TIP3     3452     TIP3     H2       HT       0.417000       1.00800           0
     27692 TIP3     3453     TIP3     OH2      OT      -0.834000       15.9994           0
     27693 TIP3     3453     TIP3     H1       HT       0.417000       1.00800           0
     27694 TIP3     3453     TIP3     H2       HT       0.417000       1.00800           0
     27695 TIP3     3454     TIP3     OH2      OT      -0.834000       15.9994           0
     27696 TIP3     3454     TIP3     H1       HT       0.417000       1.00800           0
     27697 TIP3     3454     TIP3     H2       HT       0.417000       1.00800           0
     27698 TIP3     3455     TIP3     OH2      OT      -0.834000       15.9994           0
     27699 TIP3     3455     TIP3     H1       HT       0.417000       1.00800           0
     27700 TIP3     3455     TIP3     H2       HT       0.417000       1.00800           0
     27701 TIP3     3456     TIP3     OH2      OT      -0.834000       15.9994           0
     27702 TIP3     3456     TIP3     H1       HT       0.417000       1.00800           0
     27703 TIP3     3456     TIP3     H2       HT       0.417000       1.00800           0
     27704 TIP3     3457     TIP3     OH2      OT      -0.834000       15.9994           0
     27705 TIP3     3457     TIP3     H1       HT       0.417000       1.00800           0
     27706 TIP3     3457     TIP3     H2       HT       0.417000       1.00800           0
     27707 TIP3     3458     TIP3     OH2      OT      -0.834000       15.9994           0
     27708 TIP3     3458     TIP3     H1       HT       0.417000       1.00800           0
     27709 TIP3     3458     TIP3     H2       HT       0.417000       1.00800           0
     27710 TIP3     3459     TIP3     OH2      OT      -0.834000       15.9994           0
     27711 TIP3     3459     TIP3     H1       HT       0.417000       1.00800           0
     27712 TIP3     3459     TIP3     H2       HT       0.417000       1.00800           0
     27713 TIP3     3460     TIP3     OH2      OT      -0.834000       15.9994           0
     27714 TIP3     3460     TIP3     H1       HT       0.417000       1.00800           0
     27715 TIP3     3460     TIP3     H2       HT       0.417000       1.00800           0
     27716 TIP3     3461     TIP3     OH2      OT      -0.834000       15.9994           0
     27717 TIP3     3461     TIP3     H1       HT       0.417000       1.00800           0
     27718 TIP3     3461     TIP3     H2       HT       0.417000       1.00800           0
     27719 TIP3     3462     TIP3     OH2      OT      -0.834000       15.9994           0
     27720 TIP3     3462     TIP3     H1       HT       0.417000       1.00800           0
     27721 TIP3     3462     TIP3     H2       HT       0.417000       1.00800           0
     27722 TIP3     3463     TIP3     OH2      OT      -0.834000       15.9994           0
     27723 TIP3     3463     TIP3     H1       HT       0.417000       1.00800           0
     27724 TIP3     3463     TIP3     H2       HT       0.417000       1.00800           0
     27725 TIP3     3464     TIP3     OH2      OT      -0.834000       15.9994           0
     27726 TIP3     3464     TIP3     H1       HT       0.417000       1.00800           0
     27727 TIP3     3464     TIP3     H2       HT       0.417000       1.00800           0
     27728 TIP3     3465     TIP3     OH2      OT      -0.834000       15.9994           0
     27729 TIP3     3465     TIP3     H1       HT       0.417000       1.00800           0
     27730 TIP3     3465     TIP3     H2       HT       0.417000       1.00800           0
     27731 TIP3     3466     TIP3     OH2      OT      -0.834000       15.9994           0
     27732 TIP3     3466     TIP3     H1       HT       0.417000       1.00800           0
     27733 TIP3     3466     TIP3     H2       HT       0.417000       1.00800           0
     27734 TIP3     3467     TIP3     OH2      OT      -0.834000       15.9994           0
     27735 TIP3     3467     TIP3     H1       HT       0.417000       1.00800           0
     27736 TIP3     3467     TIP3     H2       HT       0.417000       1.00800           0
     27737 TIP3     3468     TIP3     OH2      OT      -0.834000       15.9994           0
     27738 TIP3     3468     TIP3     H1       HT       0.417000       1.00800           0
     27739 TIP3     3468     TIP3     H2       HT       0.417000       1.00800           0
     27740 TIP3     3469     TIP3     OH2      OT      -0.834000       15.9994           0
     27741 TIP3     3469     TIP3     H1       HT       0.417000       1.00800           0
     27742 TIP3     3469     TIP3     H2       HT       0.417000       1.00800           0
     27743 TIP3     3470     TIP3     OH2      OT      -0.834000       15.9994           0
     27744 TIP3     3470     TIP3     H1       HT       0.417000       1.00800           0
     27745 TIP3     3470     TIP3     H2       HT       0.417000       1.00800           0
     27746 TIP3     3471     TIP3     OH2      OT      -0.834000       15.9994           0
     27747 TIP3     3471     TIP3     H1       HT       0.417000       1.00800           0
     27748 TIP3     3471     TIP3     H2       HT       0.417000       1.00800           0
     27749 TIP3     3472     TIP3     OH2      OT      -0.834000       15.9994           0
     27750 TIP3     3472     TIP3     H1       HT       0.417000       1.00800           0
     27751 TIP3     3472     TIP3     H2       HT       0.417000       1.00800           0
     27752 TIP3     3473     TIP3     OH2      OT      -0.834000       15.9994           0
     27753 TIP3     3473     TIP3     H1       HT       0.417000       1.00800           0
     27754 TIP3     3473     TIP3     H2       HT       0.417000       1.00800           0
     27755 TIP3     3474     TIP3     OH2      OT      -0.834000       15.9994           0
     27756 TIP3     3474     TIP3     H1       HT       0.417000       1.00800           0
     27757 TIP3     3474     TIP3     H2       HT       0.417000       1.00800           0
     27758 TIP3     3475     TIP3     OH2      OT      -0.834000       15.9994           0
     27759 TIP3     3475     TIP3     H1       HT       0.417000       1.00800           0
     27760 TIP3     3475     TIP3     H2       HT       0.417000       1.00800           0
     27761 TIP3     3476     TIP3     OH2      OT      -0.834000       15.9994           0
     27762 TIP3     3476     TIP3     H1       HT       0.417000       1.00800           0
     27763 TIP3     3476     TIP3     H2       HT       0.417000       1.00800           0
     27764 TIP3     3477     TIP3     OH2      OT      -0.834000       15.9994           0
     27765 TIP3     3477     TIP3     H1       HT       0.417000       1.00800           0
     27766 TIP3     3477     TIP3     H2       HT       0.417000       1.00800           0
     27767 TIP3     3478     TIP3     OH2      OT      -0.834000       15.9994           0
     27768 TIP3     3478     TIP3     H1       HT       0.417000       1.00800           0
     27769 TIP3     3478     TIP3     H2       HT       0.417000       1.00800           0
     27770 TIP3     3479     TIP3     OH2      OT      -0.834000       15.9994           0
     27771 TIP3     3479     TIP3     H1       HT       0.417000       1.00800           0
     27772 TIP3     3479     TIP3     H2       HT       0.417000       1.00800           0
     27773 TIP3     3480     TIP3     OH2      OT      -0.834000       15.9994           0
     27774 TIP3     3480     TIP3     H1       HT       0.417000       1.00800           0
     27775 TIP3     3480     TIP3     H2       HT       0.417000       1.00800           0
     27776 TIP3     3481     TIP3     OH2      OT      -0.834000       15.9994           0
     27777 TIP3     3481     TIP3     H1       HT       0.417000       1.00800           0
     27778 TIP3     3481     TIP3     H2       HT       0.417000       1.00800           0
     27779 TIP3     3482     TIP3     OH2      OT      -0.834000       15.9994           0
     27780 TIP3     3482     TIP3     H1       HT       0.417000       1.00800           0
     27781 TIP3     3482     TIP3     H2       HT       0.417000       1.00800           0
     27782 TIP3     3483     TIP3     OH2      OT      -0.834000       15.9994           0
     27783 TIP3     3483     TIP3     H1       HT       0.417000       1.00800           0
     27784 TIP3     3483     TIP3     H2       HT       0.417000       1.00800           0
     27785 TIP3     3484     TIP3     OH2      OT      -0.834000       15.9994           0
     27786 TIP3     3484     TIP3     H1       HT       0.417000       1.00800           0
     27787 TIP3     3484     TIP3     H2       HT       0.417000       1.00800           0
     27788 TIP3     3485     TIP3     OH2      OT      -0.834000       15.9994           0
     27789 TIP3     3485     TIP3     H1       HT       0.417000       1.00800           0
     27790 TIP3     3485     TIP3     H2       HT       0.417000       1.00800           0
     27791 TIP3     3486     TIP3     OH2      OT      -0.834000       15.9994           0
     27792 TIP3     3486     TIP3     H1       HT       0.417000       1.00800           0
     27793 TIP3     3486     TIP3     H2       HT       0.417000       1.00800           0
     27794 TIP3     3487     TIP3     OH2      OT      -0.834000       15.9994           0
     27795 TIP3     3487     TIP3     H1       HT       0.417000       1.00800           0
     27796 TIP3     3487     TIP3     H2       HT       0.417000       1.00800           0
     27797 TIP3     3488     TIP3     OH2      OT      -0.834000       15.9994           0
     27798 TIP3     3488     TIP3     H1       HT       0.417000       1.00800           0
     27799 TIP3     3488     TIP3     H2       HT       0.417000       1.00800           0
     27800 TIP3     3489     TIP3     OH2      OT      -0.834000       15.9994           0
     27801 TIP3     3489     TIP3     H1       HT       0.417000       1.00800           0
     27802 TIP3     3489     TIP3     H2       HT       0.417000       1.00800           0
     27803 TIP3     3490     TIP3     OH2      OT      -0.834000       15.9994           0
     27804 TIP3     3490     TIP3     H1       HT       0.417000       1.00800           0
     27805 TIP3     3490     TIP3     H2       HT       0.417000       1.00800           0
     27806 TIP3     3491     TIP3     OH2      OT      -0.834000       15.9994           0
     27807 TIP3     3491     TIP3     H1       HT       0.417000       1.00800           0
     27808 TIP3     3491     TIP3     H2       HT       0.417000       1.00800           0
     27809 TIP3     3492     TIP3     OH2      OT      -0.834000       15.9994           0
     27810 TIP3     3492     TIP3     H1       HT       0.417000       1.00800           0
     27811 TIP3     3492     TIP3     H2       HT       0.417000       1.00800           0
     27812 TIP3     3493     TIP3     OH2      OT      -0.834000       15.9994           0
     27813 TIP3     3493     TIP3     H1       HT       0.417000       1.00800           0
     27814 TIP3     3493     TIP3     H2       HT       0.417000       1.00800           0
     27815 TIP3     3494     TIP3     OH2      OT      -0.834000       15.9994           0
     27816 TIP3     3494     TIP3     H1       HT       0.417000       1.00800           0
     27817 TIP3     3494     TIP3     H2       HT       0.417000       1.00800           0
     27818 TIP3     3495     TIP3     OH2      OT      -0.834000       15.9994           0
     27819 TIP3     3495     TIP3     H1       HT       0.417000       1.00800           0
     27820 TIP3     3495     TIP3     H2       HT       0.417000       1.00800           0
     27821 TIP3     3496     TIP3     OH2      OT      -0.834000       15.9994           0
     27822 TIP3     3496     TIP3     H1       HT       0.417000       1.00800           0
     27823 TIP3     3496     TIP3     H2       HT       0.417000       1.00800           0
     27824 TIP3     3497     TIP3     OH2      OT      -0.834000       15.9994           0
     27825 TIP3     3497     TIP3     H1       HT       0.417000       1.00800           0
     27826 TIP3     3497     TIP3     H2       HT       0.417000       1.00800           0
     27827 TIP3     3498     TIP3     OH2      OT      -0.834000       15.9994           0
     27828 TIP3     3498     TIP3     H1       HT       0.417000       1.00800           0
     27829 TIP3     3498     TIP3     H2       HT       0.417000       1.00800           0
     27830 TIP3     3499     TIP3     OH2      OT      -0.834000       15.9994           0
     27831 TIP3     3499     TIP3     H1       HT       0.417000       1.00800           0
     27832 TIP3     3499     TIP3     H2       HT       0.417000       1.00800           0
     27833 TIP3     3500     TIP3     OH2      OT      -0.834000       15.9994           0
     27834 TIP3     3500     TIP3     H1       HT       0.417000       1.00800           0
     27835 TIP3     3500     TIP3     H2       HT       0.417000       1.00800           0
     27836 TIP3     3501     TIP3     OH2      OT      -0.834000       15.9994           0
     27837 TIP3     3501     TIP3     H1       HT       0.417000       1.00800           0
     27838 TIP3     3501     TIP3     H2       HT       0.417000       1.00800           0
     27839 TIP3     3502     TIP3     OH2      OT      -0.834000       15.9994           0
     27840 TIP3     3502     TIP3     H1       HT       0.417000       1.00800           0
     27841 TIP3     3502     TIP3     H2       HT       0.417000       1.00800           0
     27842 TIP3     3503     TIP3     OH2      OT      -0.834000       15.9994           0
     27843 TIP3     3503     TIP3     H1       HT       0.417000       1.00800           0
     27844 TIP3     3503     TIP3     H2       HT       0.417000       1.00800           0
     27845 TIP3     3504     TIP3     OH2      OT      -0.834000       15.9994           0
     27846 TIP3     3504     TIP3     H1       HT       0.417000       1.00800           0
     27847 TIP3     3504     TIP3     H2       HT       0.417000       1.00800           0
     27848 TIP3     3505     TIP3     OH2      OT      -0.834000       15.9994           0
     27849 TIP3     3505     TIP3     H1       HT       0.417000       1.00800           0
     27850 TIP3     3505     TIP3     H2       HT       0.417000       1.00800           0
     27851 TIP3     3506     TIP3     OH2      OT      -0.834000       15.9994           0
     27852 TIP3     3506     TIP3     H1       HT       0.417000       1.00800           0
     27853 TIP3     3506     TIP3     H2       HT       0.417000       1.00800           0
     27854 TIP3     3507     TIP3     OH2      OT      -0.834000       15.9994           0
     27855 TIP3     3507     TIP3     H1       HT       0.417000       1.00800           0
     27856 TIP3     3507     TIP3     H2       HT       0.417000       1.00800           0
     27857 TIP3     3508     TIP3     OH2      OT      -0.834000       15.9994           0
     27858 TIP3     3508     TIP3     H1       HT       0.417000       1.00800           0
     27859 TIP3     3508     TIP3     H2       HT       0.417000       1.00800           0
     27860 TIP3     3509     TIP3     OH2      OT      -0.834000       15.9994           0
     27861 TIP3     3509     TIP3     H1       HT       0.417000       1.00800           0
     27862 TIP3     3509     TIP3     H2       HT       0.417000       1.00800           0
     27863 TIP3     3510     TIP3     OH2      OT      -0.834000       15.9994           0
     27864 TIP3     3510     TIP3     H1       HT       0.417000       1.00800           0
     27865 TIP3     3510     TIP3     H2       HT       0.417000       1.00800           0
     27866 TIP3     3511     TIP3     OH2      OT      -0.834000       15.9994           0
     27867 TIP3     3511     TIP3     H1       HT       0.417000       1.00800           0
     27868 TIP3     3511     TIP3     H2       HT       0.417000       1.00800           0
     27869 TIP3     3512     TIP3     OH2      OT      -0.834000       15.9994           0
     27870 TIP3     3512     TIP3     H1       HT       0.417000       1.00800           0
     27871 TIP3     3512     TIP3     H2       HT       0.417000       1.00800           0
     27872 TIP3     3513     TIP3     OH2      OT      -0.834000       15.9994           0
     27873 TIP3     3513     TIP3     H1       HT       0.417000       1.00800           0
     27874 TIP3     3513     TIP3     H2       HT       0.417000       1.00800           0
     27875 TIP3     3514     TIP3     OH2      OT      -0.834000       15.9994           0
     27876 TIP3     3514     TIP3     H1       HT       0.417000       1.00800           0
     27877 TIP3     3514     TIP3     H2       HT       0.417000       1.00800           0
     27878 TIP3     3515     TIP3     OH2      OT      -0.834000       15.9994           0
     27879 TIP3     3515     TIP3     H1       HT       0.417000       1.00800           0
     27880 TIP3     3515     TIP3     H2       HT       0.417000       1.00800           0
     27881 TIP3     3516     TIP3     OH2      OT      -0.834000       15.9994           0
     27882 TIP3     3516     TIP3     H1       HT       0.417000       1.00800           0
     27883 TIP3     3516     TIP3     H2       HT       0.417000       1.00800           0
     27884 TIP3     3517     TIP3     OH2      OT      -0.834000       15.9994           0
     27885 TIP3     3517     TIP3     H1       HT       0.417000       1.00800           0
     27886 TIP3     3517     TIP3     H2       HT       0.417000       1.00800           0
     27887 TIP3     3518     TIP3     OH2      OT      -0.834000       15.9994           0
     27888 TIP3     3518     TIP3     H1       HT       0.417000       1.00800           0
     27889 TIP3     3518     TIP3     H2       HT       0.417000       1.00800           0
     27890 TIP3     3519     TIP3     OH2      OT      -0.834000       15.9994           0
     27891 TIP3     3519     TIP3     H1       HT       0.417000       1.00800           0
     27892 TIP3     3519     TIP3     H2       HT       0.417000       1.00800           0
     27893 TIP3     3520     TIP3     OH2      OT      -0.834000       15.9994           0
     27894 TIP3     3520     TIP3     H1       HT       0.417000       1.00800           0
     27895 TIP3     3520     TIP3     H2       HT       0.417000       1.00800           0
     27896 TIP3     3521     TIP3     OH2      OT      -0.834000       15.9994           0
     27897 TIP3     3521     TIP3     H1       HT       0.417000       1.00800           0
     27898 TIP3     3521     TIP3     H2       HT       0.417000       1.00800           0
     27899 TIP3     3522     TIP3     OH2      OT      -0.834000       15.9994           0
     27900 TIP3     3522     TIP3     H1       HT       0.417000       1.00800           0
     27901 TIP3     3522     TIP3     H2       HT       0.417000       1.00800           0
     27902 TIP3     3523     TIP3     OH2      OT      -0.834000       15.9994           0
     27903 TIP3     3523     TIP3     H1       HT       0.417000       1.00800           0
     27904 TIP3     3523     TIP3     H2       HT       0.417000       1.00800           0
     27905 TIP3     3524     TIP3     OH2      OT      -0.834000       15.9994           0
     27906 TIP3     3524     TIP3     H1       HT       0.417000       1.00800           0
     27907 TIP3     3524     TIP3     H2       HT       0.417000       1.00800           0
     27908 TIP3     3525     TIP3     OH2      OT      -0.834000       15.9994           0
     27909 TIP3     3525     TIP3     H1       HT       0.417000       1.00800           0
     27910 TIP3     3525     TIP3     H2       HT       0.417000       1.00800           0
     27911 TIP3     3526     TIP3     OH2      OT      -0.834000       15.9994           0
     27912 TIP3     3526     TIP3     H1       HT       0.417000       1.00800           0
     27913 TIP3     3526     TIP3     H2       HT       0.417000       1.00800           0
     27914 TIP3     3527     TIP3     OH2      OT      -0.834000       15.9994           0
     27915 TIP3     3527     TIP3     H1       HT       0.417000       1.00800           0
     27916 TIP3     3527     TIP3     H2       HT       0.417000       1.00800           0
     27917 TIP3     3528     TIP3     OH2      OT      -0.834000       15.9994           0
     27918 TIP3     3528     TIP3     H1       HT       0.417000       1.00800           0
     27919 TIP3     3528     TIP3     H2       HT       0.417000       1.00800           0
     27920 TIP3     3529     TIP3     OH2      OT      -0.834000       15.9994           0
     27921 TIP3     3529     TIP3     H1       HT       0.417000       1.00800           0
     27922 TIP3     3529     TIP3     H2       HT       0.417000       1.00800           0
     27923 TIP3     3530     TIP3     OH2      OT      -0.834000       15.9994           0
     27924 TIP3     3530     TIP3     H1       HT       0.417000       1.00800           0
     27925 TIP3     3530     TIP3     H2       HT       0.417000       1.00800           0
     27926 TIP3     3531     TIP3     OH2      OT      -0.834000       15.9994           0
     27927 TIP3     3531     TIP3     H1       HT       0.417000       1.00800           0
     27928 TIP3     3531     TIP3     H2       HT       0.417000       1.00800           0
     27929 TIP3     3532     TIP3     OH2      OT      -0.834000       15.9994           0
     27930 TIP3     3532     TIP3     H1       HT       0.417000       1.00800           0
     27931 TIP3     3532     TIP3     H2       HT       0.417000       1.00800           0
     27932 TIP3     3533     TIP3     OH2      OT      -0.834000       15.9994           0
     27933 TIP3     3533     TIP3     H1       HT       0.417000       1.00800           0
     27934 TIP3     3533     TIP3     H2       HT       0.417000       1.00800           0
     27935 TIP3     3534     TIP3     OH2      OT      -0.834000       15.9994           0
     27936 TIP3     3534     TIP3     H1       HT       0.417000       1.00800           0
     27937 TIP3     3534     TIP3     H2       HT       0.417000       1.00800           0
     27938 TIP3     3535     TIP3     OH2      OT      -0.834000       15.9994           0
     27939 TIP3     3535     TIP3     H1       HT       0.417000       1.00800           0
     27940 TIP3     3535     TIP3     H2       HT       0.417000       1.00800           0
     27941 TIP3     3536     TIP3     OH2      OT      -0.834000       15.9994           0
     27942 TIP3     3536     TIP3     H1       HT       0.417000       1.00800           0
     27943 TIP3     3536     TIP3     H2       HT       0.417000       1.00800           0
     27944 TIP3     3537     TIP3     OH2      OT      -0.834000       15.9994           0
     27945 TIP3     3537     TIP3     H1       HT       0.417000       1.00800           0
     27946 TIP3     3537     TIP3     H2       HT       0.417000       1.00800           0
     27947 TIP3     3538     TIP3     OH2      OT      -0.834000       15.9994           0
     27948 TIP3     3538     TIP3     H1       HT       0.417000       1.00800           0
     27949 TIP3     3538     TIP3     H2       HT       0.417000       1.00800           0
     27950 TIP3     3539     TIP3     OH2      OT      -0.834000       15.9994           0
     27951 TIP3     3539     TIP3     H1       HT       0.417000       1.00800           0
     27952 TIP3     3539     TIP3     H2       HT       0.417000       1.00800           0
     27953 TIP3     3540     TIP3     OH2      OT      -0.834000       15.9994           0
     27954 TIP3     3540     TIP3     H1       HT       0.417000       1.00800           0
     27955 TIP3     3540     TIP3     H2       HT       0.417000       1.00800           0
     27956 TIP3     3541     TIP3     OH2      OT      -0.834000       15.9994           0
     27957 TIP3     3541     TIP3     H1       HT       0.417000       1.00800           0
     27958 TIP3     3541     TIP3     H2       HT       0.417000       1.00800           0
     27959 TIP3     3542     TIP3     OH2      OT      -0.834000       15.9994           0
     27960 TIP3     3542     TIP3     H1       HT       0.417000       1.00800           0
     27961 TIP3     3542     TIP3     H2       HT       0.417000       1.00800           0
     27962 TIP3     3543     TIP3     OH2      OT      -0.834000       15.9994           0
     27963 TIP3     3543     TIP3     H1       HT       0.417000       1.00800           0
     27964 TIP3     3543     TIP3     H2       HT       0.417000       1.00800           0
     27965 TIP3     3544     TIP3     OH2      OT      -0.834000       15.9994           0
     27966 TIP3     3544     TIP3     H1       HT       0.417000       1.00800           0
     27967 TIP3     3544     TIP3     H2       HT       0.417000       1.00800           0
     27968 TIP3     3545     TIP3     OH2      OT      -0.834000       15.9994           0
     27969 TIP3     3545     TIP3     H1       HT       0.417000       1.00800           0
     27970 TIP3     3545     TIP3     H2       HT       0.417000       1.00800           0
     27971 TIP3     3546     TIP3     OH2      OT      -0.834000       15.9994           0
     27972 TIP3     3546     TIP3     H1       HT       0.417000       1.00800           0
     27973 TIP3     3546     TIP3     H2       HT       0.417000       1.00800           0
     27974 TIP3     3547     TIP3     OH2      OT      -0.834000       15.9994           0
     27975 TIP3     3547     TIP3     H1       HT       0.417000       1.00800           0
     27976 TIP3     3547     TIP3     H2       HT       0.417000       1.00800           0
     27977 TIP3     3548     TIP3     OH2      OT      -0.834000       15.9994           0
     27978 TIP3     3548     TIP3     H1       HT       0.417000       1.00800           0
     27979 TIP3     3548     TIP3     H2       HT       0.417000       1.00800           0
     27980 TIP3     3549     TIP3     OH2      OT      -0.834000       15.9994           0
     27981 TIP3     3549     TIP3     H1       HT       0.417000       1.00800           0
     27982 TIP3     3549     TIP3     H2       HT       0.417000       1.00800           0
     27983 TIP3     3550     TIP3     OH2      OT      -0.834000       15.9994           0
     27984 TIP3     3550     TIP3     H1       HT       0.417000       1.00800           0
     27985 TIP3     3550     TIP3     H2       HT       0.417000       1.00800           0
     27986 TIP3     3551     TIP3     OH2      OT      -0.834000       15.9994           0
     27987 TIP3     3551     TIP3     H1       HT       0.417000       1.00800           0
     27988 TIP3     3551     TIP3     H2       HT       0.417000       1.00800           0
     27989 TIP3     3552     TIP3     OH2      OT      -0.834000       15.9994           0
     27990 TIP3     3552     TIP3     H1       HT       0.417000       1.00800           0
     27991 TIP3     3552     TIP3     H2       HT       0.417000       1.00800           0
     27992 TIP3     3553     TIP3     OH2      OT      -0.834000       15.9994           0
     27993 TIP3     3553     TIP3     H1       HT       0.417000       1.00800           0
     27994 TIP3     3553     TIP3     H2       HT       0.417000       1.00800           0
     27995 TIP3     3554     TIP3     OH2      OT      -0.834000       15.9994           0
     27996 TIP3     3554     TIP3     H1       HT       0.417000       1.00800           0
     27997 TIP3     3554     TIP3     H2       HT       0.417000       1.00800           0
     27998 TIP3     3555     TIP3     OH2      OT      -0.834000       15.9994           0
     27999 TIP3     3555     TIP3     H1       HT       0.417000       1.00800           0
     28000 TIP3     3555     TIP3     H2       HT       0.417000       1.00800           0
     28001 TIP3     3556     TIP3     OH2      OT      -0.834000       15.9994           0
     28002 TIP3     3556     TIP3     H1       HT       0.417000       1.00800           0
     28003 TIP3     3556     TIP3     H2       HT       0.417000       1.00800           0
     28004 TIP3     3557     TIP3     OH2      OT      -0.834000       15.9994           0
     28005 TIP3     3557     TIP3     H1       HT       0.417000       1.00800           0
     28006 TIP3     3557     TIP3     H2       HT       0.417000       1.00800           0
     28007 TIP3     3558     TIP3     OH2      OT      -0.834000       15.9994           0
     28008 TIP3     3558     TIP3     H1       HT       0.417000       1.00800           0
     28009 TIP3     3558     TIP3     H2       HT       0.417000       1.00800           0
     28010 TIP3     3559     TIP3     OH2      OT      -0.834000       15.9994           0
     28011 TIP3     3559     TIP3     H1       HT       0.417000       1.00800           0
     28012 TIP3     3559     TIP3     H2       HT       0.417000       1.00800           0
     28013 TIP3     3560     TIP3     OH2      OT      -0.834000       15.9994           0
     28014 TIP3     3560     TIP3     H1       HT       0.417000       1.00800           0
     28015 TIP3     3560     TIP3     H2       HT       0.417000       1.00800           0
     28016 TIP3     3561     TIP3     OH2      OT      -0.834000       15.9994           0
     28017 TIP3     3561     TIP3     H1       HT       0.417000       1.00800           0
     28018 TIP3     3561     TIP3     H2       HT       0.417000       1.00800           0
     28019 TIP3     3562     TIP3     OH2      OT      -0.834000       15.9994           0
     28020 TIP3     3562     TIP3     H1       HT       0.417000       1.00800           0
     28021 TIP3     3562     TIP3     H2       HT       0.417000       1.00800           0
     28022 TIP3     3563     TIP3     OH2      OT      -0.834000       15.9994           0
     28023 TIP3     3563     TIP3     H1       HT       0.417000       1.00800           0
     28024 TIP3     3563     TIP3     H2       HT       0.417000       1.00800           0
     28025 TIP3     3564     TIP3     OH2      OT      -0.834000       15.9994           0
     28026 TIP3     3564     TIP3     H1       HT       0.417000       1.00800           0
     28027 TIP3     3564     TIP3     H2       HT       0.417000       1.00800           0
     28028 TIP3     3565     TIP3     OH2      OT      -0.834000       15.9994           0
     28029 TIP3     3565     TIP3     H1       HT       0.417000       1.00800           0
     28030 TIP3     3565     TIP3     H2       HT       0.417000       1.00800           0
     28031 TIP3     3566     TIP3     OH2      OT      -0.834000       15.9994           0
     28032 TIP3     3566     TIP3     H1       HT       0.417000       1.00800           0
     28033 TIP3     3566     TIP3     H2       HT       0.417000       1.00800           0
     28034 TIP3     3567     TIP3     OH2      OT      -0.834000       15.9994           0
     28035 TIP3     3567     TIP3     H1       HT       0.417000       1.00800           0
     28036 TIP3     3567     TIP3     H2       HT       0.417000       1.00800           0
     28037 TIP3     3568     TIP3     OH2      OT      -0.834000       15.9994           0
     28038 TIP3     3568     TIP3     H1       HT       0.417000       1.00800           0
     28039 TIP3     3568     TIP3     H2       HT       0.417000       1.00800           0
     28040 TIP3     3569     TIP3     OH2      OT      -0.834000       15.9994           0
     28041 TIP3     3569     TIP3     H1       HT       0.417000       1.00800           0
     28042 TIP3     3569     TIP3     H2       HT       0.417000       1.00800           0
     28043 TIP3     3570     TIP3     OH2      OT      -0.834000       15.9994           0
     28044 TIP3     3570     TIP3     H1       HT       0.417000       1.00800           0
     28045 TIP3     3570     TIP3     H2       HT       0.417000       1.00800           0
     28046 TIP3     3571     TIP3     OH2      OT      -0.834000       15.9994           0
     28047 TIP3     3571     TIP3     H1       HT       0.417000       1.00800           0
     28048 TIP3     3571     TIP3     H2       HT       0.417000       1.00800           0
     28049 TIP3     3572     TIP3     OH2      OT      -0.834000       15.9994           0
     28050 TIP3     3572     TIP3     H1       HT       0.417000       1.00800           0
     28051 TIP3     3572     TIP3     H2       HT       0.417000       1.00800           0
     28052 TIP3     3573     TIP3     OH2      OT      -0.834000       15.9994           0
     28053 TIP3     3573     TIP3     H1       HT       0.417000       1.00800           0
     28054 TIP3     3573     TIP3     H2       HT       0.417000       1.00800           0
     28055 TIP3     3574     TIP3     OH2      OT      -0.834000       15.9994           0
     28056 TIP3     3574     TIP3     H1       HT       0.417000       1.00800           0
     28057 TIP3     3574     TIP3     H2       HT       0.417000       1.00800           0
     28058 TIP3     3575     TIP3     OH2      OT      -0.834000       15.9994           0
     28059 TIP3     3575     TIP3     H1       HT       0.417000       1.00800           0
     28060 TIP3     3575     TIP3     H2       HT       0.417000       1.00800           0
     28061 TIP3     3576     TIP3     OH2      OT      -0.834000       15.9994           0
     28062 TIP3     3576     TIP3     H1       HT       0.417000       1.00800           0
     28063 TIP3     3576     TIP3     H2       HT       0.417000       1.00800           0
     28064 TIP3     3577     TIP3     OH2      OT      -0.834000       15.9994           0
     28065 TIP3     3577     TIP3     H1       HT       0.417000       1.00800           0
     28066 TIP3     3577     TIP3     H2       HT       0.417000       1.00800           0
     28067 TIP3     3578     TIP3     OH2      OT      -0.834000       15.9994           0
     28068 TIP3     3578     TIP3     H1       HT       0.417000       1.00800           0
     28069 TIP3     3578     TIP3     H2       HT       0.417000       1.00800           0
     28070 TIP3     3579     TIP3     OH2      OT      -0.834000       15.9994           0
     28071 TIP3     3579     TIP3     H1       HT       0.417000       1.00800           0
     28072 TIP3     3579     TIP3     H2       HT       0.417000       1.00800           0
     28073 TIP3     3580     TIP3     OH2      OT      -0.834000       15.9994           0
     28074 TIP3     3580     TIP3     H1       HT       0.417000       1.00800           0
     28075 TIP3     3580     TIP3     H2       HT       0.417000       1.00800           0
     28076 TIP3     3581     TIP3     OH2      OT      -0.834000       15.9994           0
     28077 TIP3     3581     TIP3     H1       HT       0.417000       1.00800           0
     28078 TIP3     3581     TIP3     H2       HT       0.417000       1.00800           0
     28079 TIP3     3582     TIP3     OH2      OT      -0.834000       15.9994           0
     28080 TIP3     3582     TIP3     H1       HT       0.417000       1.00800           0
     28081 TIP3     3582     TIP3     H2       HT       0.417000       1.00800           0
     28082 TIP3     3583     TIP3     OH2      OT      -0.834000       15.9994           0
     28083 TIP3     3583     TIP3     H1       HT       0.417000       1.00800           0
     28084 TIP3     3583     TIP3     H2       HT       0.417000       1.00800           0
     28085 TIP3     3584     TIP3     OH2      OT      -0.834000       15.9994           0
     28086 TIP3     3584     TIP3     H1       HT       0.417000       1.00800           0
     28087 TIP3     3584     TIP3     H2       HT       0.417000       1.00800           0
     28088 TIP3     3585     TIP3     OH2      OT      -0.834000       15.9994           0
     28089 TIP3     3585     TIP3     H1       HT       0.417000       1.00800           0
     28090 TIP3     3585     TIP3     H2       HT       0.417000       1.00800           0
     28091 TIP3     3586     TIP3     OH2      OT      -0.834000       15.9994           0
     28092 TIP3     3586     TIP3     H1       HT       0.417000       1.00800           0
     28093 TIP3     3586     TIP3     H2       HT       0.417000       1.00800           0
     28094 TIP3     3587     TIP3     OH2      OT      -0.834000       15.9994           0
     28095 TIP3     3587     TIP3     H1       HT       0.417000       1.00800           0
     28096 TIP3     3587     TIP3     H2       HT       0.417000       1.00800           0
     28097 TIP3     3588     TIP3     OH2      OT      -0.834000       15.9994           0
     28098 TIP3     3588     TIP3     H1       HT       0.417000       1.00800           0
     28099 TIP3     3588     TIP3     H2       HT       0.417000       1.00800           0
     28100 TIP3     3589     TIP3     OH2      OT      -0.834000       15.9994           0
     28101 TIP3     3589     TIP3     H1       HT       0.417000       1.00800           0
     28102 TIP3     3589     TIP3     H2       HT       0.417000       1.00800           0
     28103 TIP3     3590     TIP3     OH2      OT      -0.834000       15.9994           0
     28104 TIP3     3590     TIP3     H1       HT       0.417000       1.00800           0
     28105 TIP3     3590     TIP3     H2       HT       0.417000       1.00800           0
     28106 TIP3     3591     TIP3     OH2      OT      -0.834000       15.9994           0
     28107 TIP3     3591     TIP3     H1       HT       0.417000       1.00800           0
     28108 TIP3     3591     TIP3     H2       HT       0.417000       1.00800           0
     28109 TIP3     3592     TIP3     OH2      OT      -0.834000       15.9994           0
     28110 TIP3     3592     TIP3     H1       HT       0.417000       1.00800           0
     28111 TIP3     3592     TIP3     H2       HT       0.417000       1.00800           0
     28112 TIP3     3593     TIP3     OH2      OT      -0.834000       15.9994           0
     28113 TIP3     3593     TIP3     H1       HT       0.417000       1.00800           0
     28114 TIP3     3593     TIP3     H2       HT       0.417000       1.00800           0
     28115 TIP3     3594     TIP3     OH2      OT      -0.834000       15.9994           0
     28116 TIP3     3594     TIP3     H1       HT       0.417000       1.00800           0
     28117 TIP3     3594     TIP3     H2       HT       0.417000       1.00800           0
     28118 TIP3     3595     TIP3     OH2      OT      -0.834000       15.9994           0
     28119 TIP3     3595     TIP3     H1       HT       0.417000       1.00800           0
     28120 TIP3     3595     TIP3     H2       HT       0.417000       1.00800           0
     28121 TIP3     3596     TIP3     OH2      OT      -0.834000       15.9994           0
     28122 TIP3     3596     TIP3     H1       HT       0.417000       1.00800           0
     28123 TIP3     3596     TIP3     H2       HT       0.417000       1.00800           0
     28124 TIP3     3597     TIP3     OH2      OT      -0.834000       15.9994           0
     28125 TIP3     3597     TIP3     H1       HT       0.417000       1.00800           0
     28126 TIP3     3597     TIP3     H2       HT       0.417000       1.00800           0
     28127 TIP3     3598     TIP3     OH2      OT      -0.834000       15.9994           0
     28128 TIP3     3598     TIP3     H1       HT       0.417000       1.00800           0
     28129 TIP3     3598     TIP3     H2       HT       0.417000       1.00800           0
     28130 TIP3     3599     TIP3     OH2      OT      -0.834000       15.9994           0
     28131 TIP3     3599     TIP3     H1       HT       0.417000       1.00800           0
     28132 TIP3     3599     TIP3     H2       HT       0.417000       1.00800           0
     28133 TIP3     3600     TIP3     OH2      OT      -0.834000       15.9994           0
     28134 TIP3     3600     TIP3     H1       HT       0.417000       1.00800           0
     28135 TIP3     3600     TIP3     H2       HT       0.417000       1.00800           0
     28136 TIP3     3601     TIP3     OH2      OT      -0.834000       15.9994           0
     28137 TIP3     3601     TIP3     H1       HT       0.417000       1.00800           0
     28138 TIP3     3601     TIP3     H2       HT       0.417000       1.00800           0
     28139 TIP3     3602     TIP3     OH2      OT      -0.834000       15.9994           0
     28140 TIP3     3602     TIP3     H1       HT       0.417000       1.00800           0
     28141 TIP3     3602     TIP3     H2       HT       0.417000       1.00800           0
     28142 TIP3     3603     TIP3     OH2      OT      -0.834000       15.9994           0
     28143 TIP3     3603     TIP3     H1       HT       0.417000       1.00800           0
     28144 TIP3     3603     TIP3     H2       HT       0.417000       1.00800           0
     28145 TIP3     3604     TIP3     OH2      OT      -0.834000       15.9994           0
     28146 TIP3     3604     TIP3     H1       HT       0.417000       1.00800           0
     28147 TIP3     3604     TIP3     H2       HT       0.417000       1.00800           0
     28148 TIP3     3605     TIP3     OH2      OT      -0.834000       15.9994           0
     28149 TIP3     3605     TIP3     H1       HT       0.417000       1.00800           0
     28150 TIP3     3605     TIP3     H2       HT       0.417000       1.00800           0
     28151 TIP3     3606     TIP3     OH2      OT      -0.834000       15.9994           0
     28152 TIP3     3606     TIP3     H1       HT       0.417000       1.00800           0
     28153 TIP3     3606     TIP3     H2       HT       0.417000       1.00800           0
     28154 TIP3     3607     TIP3     OH2      OT      -0.834000       15.9994           0
     28155 TIP3     3607     TIP3     H1       HT       0.417000       1.00800           0
     28156 TIP3     3607     TIP3     H2       HT       0.417000       1.00800           0
     28157 TIP3     3608     TIP3     OH2      OT      -0.834000       15.9994           0
     28158 TIP3     3608     TIP3     H1       HT       0.417000       1.00800           0
     28159 TIP3     3608     TIP3     H2       HT       0.417000       1.00800           0
     28160 TIP3     3609     TIP3     OH2      OT      -0.834000       15.9994           0
     28161 TIP3     3609     TIP3     H1       HT       0.417000       1.00800           0
     28162 TIP3     3609     TIP3     H2       HT       0.417000       1.00800           0
     28163 TIP3     3610     TIP3     OH2      OT      -0.834000       15.9994           0
     28164 TIP3     3610     TIP3     H1       HT       0.417000       1.00800           0
     28165 TIP3     3610     TIP3     H2       HT       0.417000       1.00800           0
     28166 TIP3     3611     TIP3     OH2      OT      -0.834000       15.9994           0
     28167 TIP3     3611     TIP3     H1       HT       0.417000       1.00800           0
     28168 TIP3     3611     TIP3     H2       HT       0.417000       1.00800           0
     28169 TIP3     3612     TIP3     OH2      OT      -0.834000       15.9994           0
     28170 TIP3     3612     TIP3     H1       HT       0.417000       1.00800           0
     28171 TIP3     3612     TIP3     H2       HT       0.417000       1.00800           0
     28172 TIP3     3613     TIP3     OH2      OT      -0.834000       15.9994           0
     28173 TIP3     3613     TIP3     H1       HT       0.417000       1.00800           0
     28174 TIP3     3613     TIP3     H2       HT       0.417000       1.00800           0
     28175 TIP3     3614     TIP3     OH2      OT      -0.834000       15.9994           0
     28176 TIP3     3614     TIP3     H1       HT       0.417000       1.00800           0
     28177 TIP3     3614     TIP3     H2       HT       0.417000       1.00800           0
     28178 TIP3     3615     TIP3     OH2      OT      -0.834000       15.9994           0
     28179 TIP3     3615     TIP3     H1       HT       0.417000       1.00800           0
     28180 TIP3     3615     TIP3     H2       HT       0.417000       1.00800           0
     28181 TIP3     3616     TIP3     OH2      OT      -0.834000       15.9994           0
     28182 TIP3     3616     TIP3     H1       HT       0.417000       1.00800           0
     28183 TIP3     3616     TIP3     H2       HT       0.417000       1.00800           0
     28184 TIP3     3617     TIP3     OH2      OT      -0.834000       15.9994           0
     28185 TIP3     3617     TIP3     H1       HT       0.417000       1.00800           0
     28186 TIP3     3617     TIP3     H2       HT       0.417000       1.00800           0
     28187 TIP3     3618     TIP3     OH2      OT      -0.834000       15.9994           0
     28188 TIP3     3618     TIP3     H1       HT       0.417000       1.00800           0
     28189 TIP3     3618     TIP3     H2       HT       0.417000       1.00800           0
     28190 TIP3     3619     TIP3     OH2      OT      -0.834000       15.9994           0
     28191 TIP3     3619     TIP3     H1       HT       0.417000       1.00800           0
     28192 TIP3     3619     TIP3     H2       HT       0.417000       1.00800           0
     28193 TIP3     3620     TIP3     OH2      OT      -0.834000       15.9994           0
     28194 TIP3     3620     TIP3     H1       HT       0.417000       1.00800           0
     28195 TIP3     3620     TIP3     H2       HT       0.417000       1.00800           0
     28196 TIP3     3621     TIP3     OH2      OT      -0.834000       15.9994           0
     28197 TIP3     3621     TIP3     H1       HT       0.417000       1.00800           0
     28198 TIP3     3621     TIP3     H2       HT       0.417000       1.00800           0
     28199 TIP3     3622     TIP3     OH2      OT      -0.834000       15.9994           0
     28200 TIP3     3622     TIP3     H1       HT       0.417000       1.00800           0
     28201 TIP3     3622     TIP3     H2       HT       0.417000       1.00800           0
     28202 TIP3     3623     TIP3     OH2      OT      -0.834000       15.9994           0
     28203 TIP3     3623     TIP3     H1       HT       0.417000       1.00800           0
     28204 TIP3     3623     TIP3     H2       HT       0.417000       1.00800           0
     28205 TIP3     3624     TIP3     OH2      OT      -0.834000       15.9994           0
     28206 TIP3     3624     TIP3     H1       HT       0.417000       1.00800           0
     28207 TIP3     3624     TIP3     H2       HT       0.417000       1.00800           0
     28208 TIP3     3625     TIP3     OH2      OT      -0.834000       15.9994           0
     28209 TIP3     3625     TIP3     H1       HT       0.417000       1.00800           0
     28210 TIP3     3625     TIP3     H2       HT       0.417000       1.00800           0
     28211 TIP3     3626     TIP3     OH2      OT      -0.834000       15.9994           0
     28212 TIP3     3626     TIP3     H1       HT       0.417000       1.00800           0
     28213 TIP3     3626     TIP3     H2       HT       0.417000       1.00800           0
     28214 TIP3     3627     TIP3     OH2      OT      -0.834000       15.9994           0
     28215 TIP3     3627     TIP3     H1       HT       0.417000       1.00800           0
     28216 TIP3     3627     TIP3     H2       HT       0.417000       1.00800           0
     28217 TIP3     3628     TIP3     OH2      OT      -0.834000       15.9994           0
     28218 TIP3     3628     TIP3     H1       HT       0.417000       1.00800           0
     28219 TIP3     3628     TIP3     H2       HT       0.417000       1.00800           0
     28220 TIP3     3629     TIP3     OH2      OT      -0.834000       15.9994           0
     28221 TIP3     3629     TIP3     H1       HT       0.417000       1.00800           0
     28222 TIP3     3629     TIP3     H2       HT       0.417000       1.00800           0
     28223 TIP3     3630     TIP3     OH2      OT      -0.834000       15.9994           0
     28224 TIP3     3630     TIP3     H1       HT       0.417000       1.00800           0
     28225 TIP3     3630     TIP3     H2       HT       0.417000       1.00800           0
     28226 TIP3     3631     TIP3     OH2      OT      -0.834000       15.9994           0
     28227 TIP3     3631     TIP3     H1       HT       0.417000       1.00800           0
     28228 TIP3     3631     TIP3     H2       HT       0.417000       1.00800           0
     28229 TIP3     3632     TIP3     OH2      OT      -0.834000       15.9994           0
     28230 TIP3     3632     TIP3     H1       HT       0.417000       1.00800           0
     28231 TIP3     3632     TIP3     H2       HT       0.417000       1.00800           0
     28232 TIP3     3633     TIP3     OH2      OT      -0.834000       15.9994           0
     28233 TIP3     3633     TIP3     H1       HT       0.417000       1.00800           0
     28234 TIP3     3633     TIP3     H2       HT       0.417000       1.00800           0
     28235 TIP3     3634     TIP3     OH2      OT      -0.834000       15.9994           0
     28236 TIP3     3634     TIP3     H1       HT       0.417000       1.00800           0
     28237 TIP3     3634     TIP3     H2       HT       0.417000       1.00800           0
     28238 TIP3     3635     TIP3     OH2      OT      -0.834000       15.9994           0
     28239 TIP3     3635     TIP3     H1       HT       0.417000       1.00800           0
     28240 TIP3     3635     TIP3     H2       HT       0.417000       1.00800           0
     28241 TIP3     3636     TIP3     OH2      OT      -0.834000       15.9994           0
     28242 TIP3     3636     TIP3     H1       HT       0.417000       1.00800           0
     28243 TIP3     3636     TIP3     H2       HT       0.417000       1.00800           0
     28244 TIP3     3637     TIP3     OH2      OT      -0.834000       15.9994           0
     28245 TIP3     3637     TIP3     H1       HT       0.417000       1.00800           0
     28246 TIP3     3637     TIP3     H2       HT       0.417000       1.00800           0
     28247 TIP3     3638     TIP3     OH2      OT      -0.834000       15.9994           0
     28248 TIP3     3638     TIP3     H1       HT       0.417000       1.00800           0
     28249 TIP3     3638     TIP3     H2       HT       0.417000       1.00800           0
     28250 TIP3     3639     TIP3     OH2      OT      -0.834000       15.9994           0
     28251 TIP3     3639     TIP3     H1       HT       0.417000       1.00800           0
     28252 TIP3     3639     TIP3     H2       HT       0.417000       1.00800           0
     28253 TIP3     3640     TIP3     OH2      OT      -0.834000       15.9994           0
     28254 TIP3     3640     TIP3     H1       HT       0.417000       1.00800           0
     28255 TIP3     3640     TIP3     H2       HT       0.417000       1.00800           0
     28256 TIP3     3641     TIP3     OH2      OT      -0.834000       15.9994           0
     28257 TIP3     3641     TIP3     H1       HT       0.417000       1.00800           0
     28258 TIP3     3641     TIP3     H2       HT       0.417000       1.00800           0
     28259 TIP3     3642     TIP3     OH2      OT      -0.834000       15.9994           0
     28260 TIP3     3642     TIP3     H1       HT       0.417000       1.00800           0
     28261 TIP3     3642     TIP3     H2       HT       0.417000       1.00800           0
     28262 TIP3     3643     TIP3     OH2      OT      -0.834000       15.9994           0
     28263 TIP3     3643     TIP3     H1       HT       0.417000       1.00800           0
     28264 TIP3     3643     TIP3     H2       HT       0.417000       1.00800           0
     28265 TIP3     3644     TIP3     OH2      OT      -0.834000       15.9994           0
     28266 TIP3     3644     TIP3     H1       HT       0.417000       1.00800           0
     28267 TIP3     3644     TIP3     H2       HT       0.417000       1.00800           0
     28268 TIP3     3645     TIP3     OH2      OT      -0.834000       15.9994           0
     28269 TIP3     3645     TIP3     H1       HT       0.417000       1.00800           0
     28270 TIP3     3645     TIP3     H2       HT       0.417000       1.00800           0
     28271 TIP3     3646     TIP3     OH2      OT      -0.834000       15.9994           0
     28272 TIP3     3646     TIP3     H1       HT       0.417000       1.00800           0
     28273 TIP3     3646     TIP3     H2       HT       0.417000       1.00800           0
     28274 TIP3     3647     TIP3     OH2      OT      -0.834000       15.9994           0
     28275 TIP3     3647     TIP3     H1       HT       0.417000       1.00800           0
     28276 TIP3     3647     TIP3     H2       HT       0.417000       1.00800           0
     28277 TIP3     3648     TIP3     OH2      OT      -0.834000       15.9994           0
     28278 TIP3     3648     TIP3     H1       HT       0.417000       1.00800           0
     28279 TIP3     3648     TIP3     H2       HT       0.417000       1.00800           0
     28280 TIP3     3649     TIP3     OH2      OT      -0.834000       15.9994           0
     28281 TIP3     3649     TIP3     H1       HT       0.417000       1.00800           0
     28282 TIP3     3649     TIP3     H2       HT       0.417000       1.00800           0
     28283 TIP3     3650     TIP3     OH2      OT      -0.834000       15.9994           0
     28284 TIP3     3650     TIP3     H1       HT       0.417000       1.00800           0
     28285 TIP3     3650     TIP3     H2       HT       0.417000       1.00800           0
     28286 TIP3     3651     TIP3     OH2      OT      -0.834000       15.9994           0
     28287 TIP3     3651     TIP3     H1       HT       0.417000       1.00800           0
     28288 TIP3     3651     TIP3     H2       HT       0.417000       1.00800           0
     28289 TIP3     3652     TIP3     OH2      OT      -0.834000       15.9994           0
     28290 TIP3     3652     TIP3     H1       HT       0.417000       1.00800           0
     28291 TIP3     3652     TIP3     H2       HT       0.417000       1.00800           0
     28292 TIP3     3653     TIP3     OH2      OT      -0.834000       15.9994           0
     28293 TIP3     3653     TIP3     H1       HT       0.417000       1.00800           0
     28294 TIP3     3653     TIP3     H2       HT       0.417000       1.00800           0
     28295 TIP3     3654     TIP3     OH2      OT      -0.834000       15.9994           0
     28296 TIP3     3654     TIP3     H1       HT       0.417000       1.00800           0
     28297 TIP3     3654     TIP3     H2       HT       0.417000       1.00800           0
     28298 TIP3     3655     TIP3     OH2      OT      -0.834000       15.9994           0
     28299 TIP3     3655     TIP3     H1       HT       0.417000       1.00800           0
     28300 TIP3     3655     TIP3     H2       HT       0.417000       1.00800           0
     28301 TIP3     3656     TIP3     OH2      OT      -0.834000       15.9994           0
     28302 TIP3     3656     TIP3     H1       HT       0.417000       1.00800           0
     28303 TIP3     3656     TIP3     H2       HT       0.417000       1.00800           0
     28304 TIP3     3657     TIP3     OH2      OT      -0.834000       15.9994           0
     28305 TIP3     3657     TIP3     H1       HT       0.417000       1.00800           0
     28306 TIP3     3657     TIP3     H2       HT       0.417000       1.00800           0
     28307 TIP3     3658     TIP3     OH2      OT      -0.834000       15.9994           0
     28308 TIP3     3658     TIP3     H1       HT       0.417000       1.00800           0
     28309 TIP3     3658     TIP3     H2       HT       0.417000       1.00800           0
     28310 TIP3     3659     TIP3     OH2      OT      -0.834000       15.9994           0
     28311 TIP3     3659     TIP3     H1       HT       0.417000       1.00800           0
     28312 TIP3     3659     TIP3     H2       HT       0.417000       1.00800           0
     28313 TIP3     3660     TIP3     OH2      OT      -0.834000       15.9994           0
     28314 TIP3     3660     TIP3     H1       HT       0.417000       1.00800           0
     28315 TIP3     3660     TIP3     H2       HT       0.417000       1.00800           0
     28316 TIP3     3661     TIP3     OH2      OT      -0.834000       15.9994           0
     28317 TIP3     3661     TIP3     H1       HT       0.417000       1.00800           0
     28318 TIP3     3661     TIP3     H2       HT       0.417000       1.00800           0
     28319 TIP3     3662     TIP3     OH2      OT      -0.834000       15.9994           0
     28320 TIP3     3662     TIP3     H1       HT       0.417000       1.00800           0
     28321 TIP3     3662     TIP3     H2       HT       0.417000       1.00800           0
     28322 TIP3     3663     TIP3     OH2      OT      -0.834000       15.9994           0
     28323 TIP3     3663     TIP3     H1       HT       0.417000       1.00800           0
     28324 TIP3     3663     TIP3     H2       HT       0.417000       1.00800           0
     28325 TIP3     3664     TIP3     OH2      OT      -0.834000       15.9994           0
     28326 TIP3     3664     TIP3     H1       HT       0.417000       1.00800           0
     28327 TIP3     3664     TIP3     H2       HT       0.417000       1.00800           0
     28328 TIP3     3665     TIP3     OH2      OT      -0.834000       15.9994           0
     28329 TIP3     3665     TIP3     H1       HT       0.417000       1.00800           0
     28330 TIP3     3665     TIP3     H2       HT       0.417000       1.00800           0
     28331 TIP3     3666     TIP3     OH2      OT      -0.834000       15.9994           0
     28332 TIP3     3666     TIP3     H1       HT       0.417000       1.00800           0
     28333 TIP3     3666     TIP3     H2       HT       0.417000       1.00800           0
     28334 TIP3     3667     TIP3     OH2      OT      -0.834000       15.9994           0
     28335 TIP3     3667     TIP3     H1       HT       0.417000       1.00800           0
     28336 TIP3     3667     TIP3     H2       HT       0.417000       1.00800           0
     28337 TIP3     3668     TIP3     OH2      OT      -0.834000       15.9994           0
     28338 TIP3     3668     TIP3     H1       HT       0.417000       1.00800           0
     28339 TIP3     3668     TIP3     H2       HT       0.417000       1.00800           0
     28340 TIP3     3669     TIP3     OH2      OT      -0.834000       15.9994           0
     28341 TIP3     3669     TIP3     H1       HT       0.417000       1.00800           0
     28342 TIP3     3669     TIP3     H2       HT       0.417000       1.00800           0
     28343 TIP3     3670     TIP3     OH2      OT      -0.834000       15.9994           0
     28344 TIP3     3670     TIP3     H1       HT       0.417000       1.00800           0
     28345 TIP3     3670     TIP3     H2       HT       0.417000       1.00800           0
     28346 TIP3     3671     TIP3     OH2      OT      -0.834000       15.9994           0
     28347 TIP3     3671     TIP3     H1       HT       0.417000       1.00800           0
     28348 TIP3     3671     TIP3     H2       HT       0.417000       1.00800           0
     28349 TIP3     3672     TIP3     OH2      OT      -0.834000       15.9994           0
     28350 TIP3     3672     TIP3     H1       HT       0.417000       1.00800           0
     28351 TIP3     3672     TIP3     H2       HT       0.417000       1.00800           0
     28352 TIP3     3673     TIP3     OH2      OT      -0.834000       15.9994           0
     28353 TIP3     3673     TIP3     H1       HT       0.417000       1.00800           0
     28354 TIP3     3673     TIP3     H2       HT       0.417000       1.00800           0
     28355 TIP3     3674     TIP3     OH2      OT      -0.834000       15.9994           0
     28356 TIP3     3674     TIP3     H1       HT       0.417000       1.00800           0
     28357 TIP3     3674     TIP3     H2       HT       0.417000       1.00800           0
     28358 TIP3     3675     TIP3     OH2      OT      -0.834000       15.9994           0
     28359 TIP3     3675     TIP3     H1       HT       0.417000       1.00800           0
     28360 TIP3     3675     TIP3     H2       HT       0.417000       1.00800           0
     28361 TIP3     3676     TIP3     OH2      OT      -0.834000       15.9994           0
     28362 TIP3     3676     TIP3     H1       HT       0.417000       1.00800           0
     28363 TIP3     3676     TIP3     H2       HT       0.417000       1.00800           0
     28364 TIP3     3677     TIP3     OH2      OT      -0.834000       15.9994           0
     28365 TIP3     3677     TIP3     H1       HT       0.417000       1.00800           0
     28366 TIP3     3677     TIP3     H2       HT       0.417000       1.00800           0
     28367 TIP3     3678     TIP3     OH2      OT      -0.834000       15.9994           0
     28368 TIP3     3678     TIP3     H1       HT       0.417000       1.00800           0
     28369 TIP3     3678     TIP3     H2       HT       0.417000       1.00800           0
     28370 TIP3     3679     TIP3     OH2      OT      -0.834000       15.9994           0
     28371 TIP3     3679     TIP3     H1       HT       0.417000       1.00800           0
     28372 TIP3     3679     TIP3     H2       HT       0.417000       1.00800           0
     28373 TIP3     3680     TIP3     OH2      OT      -0.834000       15.9994           0
     28374 TIP3     3680     TIP3     H1       HT       0.417000       1.00800           0
     28375 TIP3     3680     TIP3     H2       HT       0.417000       1.00800           0
     28376 TIP3     3681     TIP3     OH2      OT      -0.834000       15.9994           0
     28377 TIP3     3681     TIP3     H1       HT       0.417000       1.00800           0
     28378 TIP3     3681     TIP3     H2       HT       0.417000       1.00800           0
     28379 TIP3     3682     TIP3     OH2      OT      -0.834000       15.9994           0
     28380 TIP3     3682     TIP3     H1       HT       0.417000       1.00800           0
     28381 TIP3     3682     TIP3     H2       HT       0.417000       1.00800           0
     28382 TIP3     3683     TIP3     OH2      OT      -0.834000       15.9994           0
     28383 TIP3     3683     TIP3     H1       HT       0.417000       1.00800           0
     28384 TIP3     3683     TIP3     H2       HT       0.417000       1.00800           0
     28385 TIP3     3684     TIP3     OH2      OT      -0.834000       15.9994           0
     28386 TIP3     3684     TIP3     H1       HT       0.417000       1.00800           0
     28387 TIP3     3684     TIP3     H2       HT       0.417000       1.00800           0
     28388 TIP3     3685     TIP3     OH2      OT      -0.834000       15.9994           0
     28389 TIP3     3685     TIP3     H1       HT       0.417000       1.00800           0
     28390 TIP3     3685     TIP3     H2       HT       0.417000       1.00800           0
     28391 TIP3     3686     TIP3     OH2      OT      -0.834000       15.9994           0
     28392 TIP3     3686     TIP3     H1       HT       0.417000       1.00800           0
     28393 TIP3     3686     TIP3     H2       HT       0.417000       1.00800           0
     28394 TIP3     3687     TIP3     OH2      OT      -0.834000       15.9994           0
     28395 TIP3     3687     TIP3     H1       HT       0.417000       1.00800           0
     28396 TIP3     3687     TIP3     H2       HT       0.417000       1.00800           0
     28397 TIP3     3688     TIP3     OH2      OT      -0.834000       15.9994           0
     28398 TIP3     3688     TIP3     H1       HT       0.417000       1.00800           0
     28399 TIP3     3688     TIP3     H2       HT       0.417000       1.00800           0
     28400 TIP3     3689     TIP3     OH2      OT      -0.834000       15.9994           0
     28401 TIP3     3689     TIP3     H1       HT       0.417000       1.00800           0
     28402 TIP3     3689     TIP3     H2       HT       0.417000       1.00800           0
     28403 TIP3     3690     TIP3     OH2      OT      -0.834000       15.9994           0
     28404 TIP3     3690     TIP3     H1       HT       0.417000       1.00800           0
     28405 TIP3     3690     TIP3     H2       HT       0.417000       1.00800           0
     28406 TIP3     3691     TIP3     OH2      OT      -0.834000       15.9994           0
     28407 TIP3     3691     TIP3     H1       HT       0.417000       1.00800           0
     28408 TIP3     3691     TIP3     H2       HT       0.417000       1.00800           0
     28409 TIP3     3692     TIP3     OH2      OT      -0.834000       15.9994           0
     28410 TIP3     3692     TIP3     H1       HT       0.417000       1.00800           0
     28411 TIP3     3692     TIP3     H2       HT       0.417000       1.00800           0
     28412 TIP3     3693     TIP3     OH2      OT      -0.834000       15.9994           0
     28413 TIP3     3693     TIP3     H1       HT       0.417000       1.00800           0
     28414 TIP3     3693     TIP3     H2       HT       0.417000       1.00800           0
     28415 TIP3     3694     TIP3     OH2      OT      -0.834000       15.9994           0
     28416 TIP3     3694     TIP3     H1       HT       0.417000       1.00800           0
     28417 TIP3     3694     TIP3     H2       HT       0.417000       1.00800           0
     28418 TIP3     3695     TIP3     OH2      OT      -0.834000       15.9994           0
     28419 TIP3     3695     TIP3     H1       HT       0.417000       1.00800           0
     28420 TIP3     3695     TIP3     H2       HT       0.417000       1.00800           0
     28421 TIP3     3696     TIP3     OH2      OT      -0.834000       15.9994           0
     28422 TIP3     3696     TIP3     H1       HT       0.417000       1.00800           0
     28423 TIP3     3696     TIP3     H2       HT       0.417000       1.00800           0
     28424 TIP3     3697     TIP3     OH2      OT      -0.834000       15.9994           0
     28425 TIP3     3697     TIP3     H1       HT       0.417000       1.00800           0
     28426 TIP3     3697     TIP3     H2       HT       0.417000       1.00800           0
     28427 TIP3     3698     TIP3     OH2      OT      -0.834000       15.9994           0
     28428 TIP3     3698     TIP3     H1       HT       0.417000       1.00800           0
     28429 TIP3     3698     TIP3     H2       HT       0.417000       1.00800           0
     28430 TIP3     3699     TIP3     OH2      OT      -0.834000       15.9994           0
     28431 TIP3     3699     TIP3     H1       HT       0.417000       1.00800           0
     28432 TIP3     3699     TIP3     H2       HT       0.417000       1.00800           0
     28433 TIP3     3700     TIP3     OH2      OT      -0.834000       15.9994           0
     28434 TIP3     3700     TIP3     H1       HT       0.417000       1.00800           0
     28435 TIP3     3700     TIP3     H2       HT       0.417000       1.00800           0
     28436 TIP3     3701     TIP3     OH2      OT      -0.834000       15.9994           0
     28437 TIP3     3701     TIP3     H1       HT       0.417000       1.00800           0
     28438 TIP3     3701     TIP3     H2       HT       0.417000       1.00800           0
     28439 TIP3     3702     TIP3     OH2      OT      -0.834000       15.9994           0
     28440 TIP3     3702     TIP3     H1       HT       0.417000       1.00800           0
     28441 TIP3     3702     TIP3     H2       HT       0.417000       1.00800           0
     28442 TIP3     3703     TIP3     OH2      OT      -0.834000       15.9994           0
     28443 TIP3     3703     TIP3     H1       HT       0.417000       1.00800           0
     28444 TIP3     3703     TIP3     H2       HT       0.417000       1.00800           0
     28445 TIP3     3704     TIP3     OH2      OT      -0.834000       15.9994           0
     28446 TIP3     3704     TIP3     H1       HT       0.417000       1.00800           0
     28447 TIP3     3704     TIP3     H2       HT       0.417000       1.00800           0
     28448 TIP3     3705     TIP3     OH2      OT      -0.834000       15.9994           0
     28449 TIP3     3705     TIP3     H1       HT       0.417000       1.00800           0
     28450 TIP3     3705     TIP3     H2       HT       0.417000       1.00800           0
     28451 TIP3     3706     TIP3     OH2      OT      -0.834000       15.9994           0
     28452 TIP3     3706     TIP3     H1       HT       0.417000       1.00800           0
     28453 TIP3     3706     TIP3     H2       HT       0.417000       1.00800           0
     28454 TIP3     3707     TIP3     OH2      OT      -0.834000       15.9994           0
     28455 TIP3     3707     TIP3     H1       HT       0.417000       1.00800           0
     28456 TIP3     3707     TIP3     H2       HT       0.417000       1.00800           0
     28457 TIP3     3708     TIP3     OH2      OT      -0.834000       15.9994           0
     28458 TIP3     3708     TIP3     H1       HT       0.417000       1.00800           0
     28459 TIP3     3708     TIP3     H2       HT       0.417000       1.00800           0
     28460 TIP3     3709     TIP3     OH2      OT      -0.834000       15.9994           0
     28461 TIP3     3709     TIP3     H1       HT       0.417000       1.00800           0
     28462 TIP3     3709     TIP3     H2       HT       0.417000       1.00800           0
     28463 TIP3     3710     TIP3     OH2      OT      -0.834000       15.9994           0
     28464 TIP3     3710     TIP3     H1       HT       0.417000       1.00800           0
     28465 TIP3     3710     TIP3     H2       HT       0.417000       1.00800           0
     28466 TIP3     3711     TIP3     OH2      OT      -0.834000       15.9994           0
     28467 TIP3     3711     TIP3     H1       HT       0.417000       1.00800           0
     28468 TIP3     3711     TIP3     H2       HT       0.417000       1.00800           0
     28469 TIP3     3712     TIP3     OH2      OT      -0.834000       15.9994           0
     28470 TIP3     3712     TIP3     H1       HT       0.417000       1.00800           0
     28471 TIP3     3712     TIP3     H2       HT       0.417000       1.00800           0
     28472 TIP3     3713     TIP3     OH2      OT      -0.834000       15.9994           0
     28473 TIP3     3713     TIP3     H1       HT       0.417000       1.00800           0
     28474 TIP3     3713     TIP3     H2       HT       0.417000       1.00800           0
     28475 TIP3     3714     TIP3     OH2      OT      -0.834000       15.9994           0
     28476 TIP3     3714     TIP3     H1       HT       0.417000       1.00800           0
     28477 TIP3     3714     TIP3     H2       HT       0.417000       1.00800           0
     28478 TIP3     3715     TIP3     OH2      OT      -0.834000       15.9994           0
     28479 TIP3     3715     TIP3     H1       HT       0.417000       1.00800           0
     28480 TIP3     3715     TIP3     H2       HT       0.417000       1.00800           0
     28481 TIP3     3716     TIP3     OH2      OT      -0.834000       15.9994           0
     28482 TIP3     3716     TIP3     H1       HT       0.417000       1.00800           0
     28483 TIP3     3716     TIP3     H2       HT       0.417000       1.00800           0
     28484 TIP3     3717     TIP3     OH2      OT      -0.834000       15.9994           0
     28485 TIP3     3717     TIP3     H1       HT       0.417000       1.00800           0
     28486 TIP3     3717     TIP3     H2       HT       0.417000       1.00800           0
     28487 TIP3     3718     TIP3     OH2      OT      -0.834000       15.9994           0
     28488 TIP3     3718     TIP3     H1       HT       0.417000       1.00800           0
     28489 TIP3     3718     TIP3     H2       HT       0.417000       1.00800           0
     28490 TIP3     3719     TIP3     OH2      OT      -0.834000       15.9994           0
     28491 TIP3     3719     TIP3     H1       HT       0.417000       1.00800           0
     28492 TIP3     3719     TIP3     H2       HT       0.417000       1.00800           0
     28493 TIP3     3720     TIP3     OH2      OT      -0.834000       15.9994           0
     28494 TIP3     3720     TIP3     H1       HT       0.417000       1.00800           0
     28495 TIP3     3720     TIP3     H2       HT       0.417000       1.00800           0
     28496 TIP3     3721     TIP3     OH2      OT      -0.834000       15.9994           0
     28497 TIP3     3721     TIP3     H1       HT       0.417000       1.00800           0
     28498 TIP3     3721     TIP3     H2       HT       0.417000       1.00800           0
     28499 TIP3     3722     TIP3     OH2      OT      -0.834000       15.9994           0
     28500 TIP3     3722     TIP3     H1       HT       0.417000       1.00800           0
     28501 TIP3     3722     TIP3     H2       HT       0.417000       1.00800           0
     28502 TIP3     3723     TIP3     OH2      OT      -0.834000       15.9994           0
     28503 TIP3     3723     TIP3     H1       HT       0.417000       1.00800           0
     28504 TIP3     3723     TIP3     H2       HT       0.417000       1.00800           0
     28505 TIP3     3724     TIP3     OH2      OT      -0.834000       15.9994           0
     28506 TIP3     3724     TIP3     H1       HT       0.417000       1.00800           0
     28507 TIP3     3724     TIP3     H2       HT       0.417000       1.00800           0
     28508 TIP3     3725     TIP3     OH2      OT      -0.834000       15.9994           0
     28509 TIP3     3725     TIP3     H1       HT       0.417000       1.00800           0
     28510 TIP3     3725     TIP3     H2       HT       0.417000       1.00800           0
     28511 TIP3     3726     TIP3     OH2      OT      -0.834000       15.9994           0
     28512 TIP3     3726     TIP3     H1       HT       0.417000       1.00800           0
     28513 TIP3     3726     TIP3     H2       HT       0.417000       1.00800           0
     28514 TIP3     3727     TIP3     OH2      OT      -0.834000       15.9994           0
     28515 TIP3     3727     TIP3     H1       HT       0.417000       1.00800           0
     28516 TIP3     3727     TIP3     H2       HT       0.417000       1.00800           0
     28517 TIP3     3728     TIP3     OH2      OT      -0.834000       15.9994           0
     28518 TIP3     3728     TIP3     H1       HT       0.417000       1.00800           0
     28519 TIP3     3728     TIP3     H2       HT       0.417000       1.00800           0
     28520 TIP3     3729     TIP3     OH2      OT      -0.834000       15.9994           0
     28521 TIP3     3729     TIP3     H1       HT       0.417000       1.00800           0
     28522 TIP3     3729     TIP3     H2       HT       0.417000       1.00800           0
     28523 TIP3     3730     TIP3     OH2      OT      -0.834000       15.9994           0
     28524 TIP3     3730     TIP3     H1       HT       0.417000       1.00800           0
     28525 TIP3     3730     TIP3     H2       HT       0.417000       1.00800           0
     28526 TIP3     3731     TIP3     OH2      OT      -0.834000       15.9994           0
     28527 TIP3     3731     TIP3     H1       HT       0.417000       1.00800           0
     28528 TIP3     3731     TIP3     H2       HT       0.417000       1.00800           0
     28529 TIP3     3732     TIP3     OH2      OT      -0.834000       15.9994           0
     28530 TIP3     3732     TIP3     H1       HT       0.417000       1.00800           0
     28531 TIP3     3732     TIP3     H2       HT       0.417000       1.00800           0
     28532 TIP3     3733     TIP3     OH2      OT      -0.834000       15.9994           0
     28533 TIP3     3733     TIP3     H1       HT       0.417000       1.00800           0
     28534 TIP3     3733     TIP3     H2       HT       0.417000       1.00800           0
     28535 TIP3     3734     TIP3     OH2      OT      -0.834000       15.9994           0
     28536 TIP3     3734     TIP3     H1       HT       0.417000       1.00800           0
     28537 TIP3     3734     TIP3     H2       HT       0.417000       1.00800           0
     28538 TIP3     3735     TIP3     OH2      OT      -0.834000       15.9994           0
     28539 TIP3     3735     TIP3     H1       HT       0.417000       1.00800           0
     28540 TIP3     3735     TIP3     H2       HT       0.417000       1.00800           0
     28541 TIP3     3736     TIP3     OH2      OT      -0.834000       15.9994           0
     28542 TIP3     3736     TIP3     H1       HT       0.417000       1.00800           0
     28543 TIP3     3736     TIP3     H2       HT       0.417000       1.00800           0
     28544 TIP3     3737     TIP3     OH2      OT      -0.834000       15.9994           0
     28545 TIP3     3737     TIP3     H1       HT       0.417000       1.00800           0
     28546 TIP3     3737     TIP3     H2       HT       0.417000       1.00800           0
     28547 TIP3     3738     TIP3     OH2      OT      -0.834000       15.9994           0
     28548 TIP3     3738     TIP3     H1       HT       0.417000       1.00800           0
     28549 TIP3     3738     TIP3     H2       HT       0.417000       1.00800           0
     28550 TIP3     3739     TIP3     OH2      OT      -0.834000       15.9994           0
     28551 TIP3     3739     TIP3     H1       HT       0.417000       1.00800           0
     28552 TIP3     3739     TIP3     H2       HT       0.417000       1.00800           0
     28553 TIP3     3740     TIP3     OH2      OT      -0.834000       15.9994           0
     28554 TIP3     3740     TIP3     H1       HT       0.417000       1.00800           0
     28555 TIP3     3740     TIP3     H2       HT       0.417000       1.00800           0
     28556 TIP3     3741     TIP3     OH2      OT      -0.834000       15.9994           0
     28557 TIP3     3741     TIP3     H1       HT       0.417000       1.00800           0
     28558 TIP3     3741     TIP3     H2       HT       0.417000       1.00800           0
     28559 TIP3     3742     TIP3     OH2      OT      -0.834000       15.9994           0
     28560 TIP3     3742     TIP3     H1       HT       0.417000       1.00800           0
     28561 TIP3     3742     TIP3     H2       HT       0.417000       1.00800           0
     28562 TIP3     3743     TIP3     OH2      OT      -0.834000       15.9994           0
     28563 TIP3     3743     TIP3     H1       HT       0.417000       1.00800           0
     28564 TIP3     3743     TIP3     H2       HT       0.417000       1.00800           0
     28565 TIP3     3744     TIP3     OH2      OT      -0.834000       15.9994           0
     28566 TIP3     3744     TIP3     H1       HT       0.417000       1.00800           0
     28567 TIP3     3744     TIP3     H2       HT       0.417000       1.00800           0
     28568 TIP3     3745     TIP3     OH2      OT      -0.834000       15.9994           0
     28569 TIP3     3745     TIP3     H1       HT       0.417000       1.00800           0
     28570 TIP3     3745     TIP3     H2       HT       0.417000       1.00800           0
     28571 TIP3     3746     TIP3     OH2      OT      -0.834000       15.9994           0
     28572 TIP3     3746     TIP3     H1       HT       0.417000       1.00800           0
     28573 TIP3     3746     TIP3     H2       HT       0.417000       1.00800           0
     28574 TIP3     3747     TIP3     OH2      OT      -0.834000       15.9994           0
     28575 TIP3     3747     TIP3     H1       HT       0.417000       1.00800           0
     28576 TIP3     3747     TIP3     H2       HT       0.417000       1.00800           0
     28577 TIP3     3748     TIP3     OH2      OT      -0.834000       15.9994           0
     28578 TIP3     3748     TIP3     H1       HT       0.417000       1.00800           0
     28579 TIP3     3748     TIP3     H2       HT       0.417000       1.00800           0
     28580 TIP3     3749     TIP3     OH2      OT      -0.834000       15.9994           0
     28581 TIP3     3749     TIP3     H1       HT       0.417000       1.00800           0
     28582 TIP3     3749     TIP3     H2       HT       0.417000       1.00800           0
     28583 TIP3     3750     TIP3     OH2      OT      -0.834000       15.9994           0
     28584 TIP3     3750     TIP3     H1       HT       0.417000       1.00800           0
     28585 TIP3     3750     TIP3     H2       HT       0.417000       1.00800           0
     28586 TIP3     3751     TIP3     OH2      OT      -0.834000       15.9994           0
     28587 TIP3     3751     TIP3     H1       HT       0.417000       1.00800           0
     28588 TIP3     3751     TIP3     H2       HT       0.417000       1.00800           0
     28589 TIP3     3752     TIP3     OH2      OT      -0.834000       15.9994           0
     28590 TIP3     3752     TIP3     H1       HT       0.417000       1.00800           0
     28591 TIP3     3752     TIP3     H2       HT       0.417000       1.00800           0
     28592 TIP3     3753     TIP3     OH2      OT      -0.834000       15.9994           0
     28593 TIP3     3753     TIP3     H1       HT       0.417000       1.00800           0
     28594 TIP3     3753     TIP3     H2       HT       0.417000       1.00800           0
     28595 TIP3     3754     TIP3     OH2      OT      -0.834000       15.9994           0
     28596 TIP3     3754     TIP3     H1       HT       0.417000       1.00800           0
     28597 TIP3     3754     TIP3     H2       HT       0.417000       1.00800           0
     28598 TIP3     3755     TIP3     OH2      OT      -0.834000       15.9994           0
     28599 TIP3     3755     TIP3     H1       HT       0.417000       1.00800           0
     28600 TIP3     3755     TIP3     H2       HT       0.417000       1.00800           0
     28601 TIP3     3756     TIP3     OH2      OT      -0.834000       15.9994           0
     28602 TIP3     3756     TIP3     H1       HT       0.417000       1.00800           0
     28603 TIP3     3756     TIP3     H2       HT       0.417000       1.00800           0
     28604 TIP3     3757     TIP3     OH2      OT      -0.834000       15.9994           0
     28605 TIP3     3757     TIP3     H1       HT       0.417000       1.00800           0
     28606 TIP3     3757     TIP3     H2       HT       0.417000       1.00800           0
     28607 TIP3     3758     TIP3     OH2      OT      -0.834000       15.9994           0
     28608 TIP3     3758     TIP3     H1       HT       0.417000       1.00800           0
     28609 TIP3     3758     TIP3     H2       HT       0.417000       1.00800           0
     28610 TIP3     3759     TIP3     OH2      OT      -0.834000       15.9994           0
     28611 TIP3     3759     TIP3     H1       HT       0.417000       1.00800           0
     28612 TIP3     3759     TIP3     H2       HT       0.417000       1.00800           0
     28613 TIP3     3760     TIP3     OH2      OT      -0.834000       15.9994           0
     28614 TIP3     3760     TIP3     H1       HT       0.417000       1.00800           0
     28615 TIP3     3760     TIP3     H2       HT       0.417000       1.00800           0
     28616 TIP3     3761     TIP3     OH2      OT      -0.834000       15.9994           0
     28617 TIP3     3761     TIP3     H1       HT       0.417000       1.00800           0
     28618 TIP3     3761     TIP3     H2       HT       0.417000       1.00800           0
     28619 TIP3     3762     TIP3     OH2      OT      -0.834000       15.9994           0
     28620 TIP3     3762     TIP3     H1       HT       0.417000       1.00800           0
     28621 TIP3     3762     TIP3     H2       HT       0.417000       1.00800           0
     28622 TIP3     3763     TIP3     OH2      OT      -0.834000       15.9994           0
     28623 TIP3     3763     TIP3     H1       HT       0.417000       1.00800           0
     28624 TIP3     3763     TIP3     H2       HT       0.417000       1.00800           0
     28625 TIP3     3764     TIP3     OH2      OT      -0.834000       15.9994           0
     28626 TIP3     3764     TIP3     H1       HT       0.417000       1.00800           0
     28627 TIP3     3764     TIP3     H2       HT       0.417000       1.00800           0
     28628 TIP3     3765     TIP3     OH2      OT      -0.834000       15.9994           0
     28629 TIP3     3765     TIP3     H1       HT       0.417000       1.00800           0
     28630 TIP3     3765     TIP3     H2       HT       0.417000       1.00800           0
     28631 TIP3     3766     TIP3     OH2      OT      -0.834000       15.9994           0
     28632 TIP3     3766     TIP3     H1       HT       0.417000       1.00800           0
     28633 TIP3     3766     TIP3     H2       HT       0.417000       1.00800           0
     28634 TIP3     3767     TIP3     OH2      OT      -0.834000       15.9994           0
     28635 TIP3     3767     TIP3     H1       HT       0.417000       1.00800           0
     28636 TIP3     3767     TIP3     H2       HT       0.417000       1.00800           0
     28637 TIP3     3768     TIP3     OH2      OT      -0.834000       15.9994           0
     28638 TIP3     3768     TIP3     H1       HT       0.417000       1.00800           0
     28639 TIP3     3768     TIP3     H2       HT       0.417000       1.00800           0
     28640 TIP3     3769     TIP3     OH2      OT      -0.834000       15.9994           0
     28641 TIP3     3769     TIP3     H1       HT       0.417000       1.00800           0
     28642 TIP3     3769     TIP3     H2       HT       0.417000       1.00800           0
     28643 TIP3     3770     TIP3     OH2      OT      -0.834000       15.9994           0
     28644 TIP3     3770     TIP3     H1       HT       0.417000       1.00800           0
     28645 TIP3     3770     TIP3     H2       HT       0.417000       1.00800           0
     28646 TIP3     3771     TIP3     OH2      OT      -0.834000       15.9994           0
     28647 TIP3     3771     TIP3     H1       HT       0.417000       1.00800           0
     28648 TIP3     3771     TIP3     H2       HT       0.417000       1.00800           0
     28649 TIP3     3772     TIP3     OH2      OT      -0.834000       15.9994           0
     28650 TIP3     3772     TIP3     H1       HT       0.417000       1.00800           0
     28651 TIP3     3772     TIP3     H2       HT       0.417000       1.00800           0
     28652 TIP3     3773     TIP3     OH2      OT      -0.834000       15.9994           0
     28653 TIP3     3773     TIP3     H1       HT       0.417000       1.00800           0
     28654 TIP3     3773     TIP3     H2       HT       0.417000       1.00800           0
     28655 TIP3     3774     TIP3     OH2      OT      -0.834000       15.9994           0
     28656 TIP3     3774     TIP3     H1       HT       0.417000       1.00800           0
     28657 TIP3     3774     TIP3     H2       HT       0.417000       1.00800           0
     28658 TIP3     3775     TIP3     OH2      OT      -0.834000       15.9994           0
     28659 TIP3     3775     TIP3     H1       HT       0.417000       1.00800           0
     28660 TIP3     3775     TIP3     H2       HT       0.417000       1.00800           0
     28661 TIP3     3776     TIP3     OH2      OT      -0.834000       15.9994           0
     28662 TIP3     3776     TIP3     H1       HT       0.417000       1.00800           0
     28663 TIP3     3776     TIP3     H2       HT       0.417000       1.00800           0
     28664 TIP3     3777     TIP3     OH2      OT      -0.834000       15.9994           0
     28665 TIP3     3777     TIP3     H1       HT       0.417000       1.00800           0
     28666 TIP3     3777     TIP3     H2       HT       0.417000       1.00800           0
     28667 TIP3     3778     TIP3     OH2      OT      -0.834000       15.9994           0
     28668 TIP3     3778     TIP3     H1       HT       0.417000       1.00800           0
     28669 TIP3     3778     TIP3     H2       HT       0.417000       1.00800           0
     28670 TIP3     3779     TIP3     OH2      OT      -0.834000       15.9994           0
     28671 TIP3     3779     TIP3     H1       HT       0.417000       1.00800           0
     28672 TIP3     3779     TIP3     H2       HT       0.417000       1.00800           0
     28673 TIP3     3780     TIP3     OH2      OT      -0.834000       15.9994           0
     28674 TIP3     3780     TIP3     H1       HT       0.417000       1.00800           0
     28675 TIP3     3780     TIP3     H2       HT       0.417000       1.00800           0
     28676 TIP3     3781     TIP3     OH2      OT      -0.834000       15.9994           0
     28677 TIP3     3781     TIP3     H1       HT       0.417000       1.00800           0
     28678 TIP3     3781     TIP3     H2       HT       0.417000       1.00800           0
     28679 TIP3     3782     TIP3     OH2      OT      -0.834000       15.9994           0
     28680 TIP3     3782     TIP3     H1       HT       0.417000       1.00800           0
     28681 TIP3     3782     TIP3     H2       HT       0.417000       1.00800           0
     28682 TIP3     3783     TIP3     OH2      OT      -0.834000       15.9994           0
     28683 TIP3     3783     TIP3     H1       HT       0.417000       1.00800           0
     28684 TIP3     3783     TIP3     H2       HT       0.417000       1.00800           0
     28685 TIP3     3784     TIP3     OH2      OT      -0.834000       15.9994           0
     28686 TIP3     3784     TIP3     H1       HT       0.417000       1.00800           0
     28687 TIP3     3784     TIP3     H2       HT       0.417000       1.00800           0
     28688 TIP3     3785     TIP3     OH2      OT      -0.834000       15.9994           0
     28689 TIP3     3785     TIP3     H1       HT       0.417000       1.00800           0
     28690 TIP3     3785     TIP3     H2       HT       0.417000       1.00800           0
     28691 TIP3     3786     TIP3     OH2      OT      -0.834000       15.9994           0
     28692 TIP3     3786     TIP3     H1       HT       0.417000       1.00800           0
     28693 TIP3     3786     TIP3     H2       HT       0.417000       1.00800           0
     28694 TIP3     3787     TIP3     OH2      OT      -0.834000       15.9994           0
     28695 TIP3     3787     TIP3     H1       HT       0.417000       1.00800           0
     28696 TIP3     3787     TIP3     H2       HT       0.417000       1.00800           0
     28697 TIP3     3788     TIP3     OH2      OT      -0.834000       15.9994           0
     28698 TIP3     3788     TIP3     H1       HT       0.417000       1.00800           0
     28699 TIP3     3788     TIP3     H2       HT       0.417000       1.00800           0
     28700 TIP3     3789     TIP3     OH2      OT      -0.834000       15.9994           0
     28701 TIP3     3789     TIP3     H1       HT       0.417000       1.00800           0
     28702 TIP3     3789     TIP3     H2       HT       0.417000       1.00800           0
     28703 TIP3     3790     TIP3     OH2      OT      -0.834000       15.9994           0
     28704 TIP3     3790     TIP3     H1       HT       0.417000       1.00800           0
     28705 TIP3     3790     TIP3     H2       HT       0.417000       1.00800           0
     28706 TIP3     3791     TIP3     OH2      OT      -0.834000       15.9994           0
     28707 TIP3     3791     TIP3     H1       HT       0.417000       1.00800           0
     28708 TIP3     3791     TIP3     H2       HT       0.417000       1.00800           0
     28709 TIP3     3792     TIP3     OH2      OT      -0.834000       15.9994           0
     28710 TIP3     3792     TIP3     H1       HT       0.417000       1.00800           0
     28711 TIP3     3792     TIP3     H2       HT       0.417000       1.00800           0
     28712 TIP3     3793     TIP3     OH2      OT      -0.834000       15.9994           0
     28713 TIP3     3793     TIP3     H1       HT       0.417000       1.00800           0
     28714 TIP3     3793     TIP3     H2       HT       0.417000       1.00800           0
     28715 TIP3     3794     TIP3     OH2      OT      -0.834000       15.9994           0
     28716 TIP3     3794     TIP3     H1       HT       0.417000       1.00800           0
     28717 TIP3     3794     TIP3     H2       HT       0.417000       1.00800           0
     28718 TIP3     3795     TIP3     OH2      OT      -0.834000       15.9994           0
     28719 TIP3     3795     TIP3     H1       HT       0.417000       1.00800           0
     28720 TIP3     3795     TIP3     H2       HT       0.417000       1.00800           0
     28721 TIP3     3796     TIP3     OH2      OT      -0.834000       15.9994           0
     28722 TIP3     3796     TIP3     H1       HT       0.417000       1.00800           0
     28723 TIP3     3796     TIP3     H2       HT       0.417000       1.00800           0
     28724 TIP3     3797     TIP3     OH2      OT      -0.834000       15.9994           0
     28725 TIP3     3797     TIP3     H1       HT       0.417000       1.00800           0
     28726 TIP3     3797     TIP3     H2       HT       0.417000       1.00800           0
     28727 TIP3     3798     TIP3     OH2      OT      -0.834000       15.9994           0
     28728 TIP3     3798     TIP3     H1       HT       0.417000       1.00800           0
     28729 TIP3     3798     TIP3     H2       HT       0.417000       1.00800           0
     28730 TIP3     3799     TIP3     OH2      OT      -0.834000       15.9994           0
     28731 TIP3     3799     TIP3     H1       HT       0.417000       1.00800           0
     28732 TIP3     3799     TIP3     H2       HT       0.417000       1.00800           0
     28733 TIP3     3800     TIP3     OH2      OT      -0.834000       15.9994           0
     28734 TIP3     3800     TIP3     H1       HT       0.417000       1.00800           0
     28735 TIP3     3800     TIP3     H2       HT       0.417000       1.00800           0
     28736 TIP3     3801     TIP3     OH2      OT      -0.834000       15.9994           0
     28737 TIP3     3801     TIP3     H1       HT       0.417000       1.00800           0
     28738 TIP3     3801     TIP3     H2       HT       0.417000       1.00800           0
     28739 TIP3     3802     TIP3     OH2      OT      -0.834000       15.9994           0
     28740 TIP3     3802     TIP3     H1       HT       0.417000       1.00800           0
     28741 TIP3     3802     TIP3     H2       HT       0.417000       1.00800           0
     28742 TIP3     3803     TIP3     OH2      OT      -0.834000       15.9994           0
     28743 TIP3     3803     TIP3     H1       HT       0.417000       1.00800           0
     28744 TIP3     3803     TIP3     H2       HT       0.417000       1.00800           0
     28745 TIP3     3804     TIP3     OH2      OT      -0.834000       15.9994           0
     28746 TIP3     3804     TIP3     H1       HT       0.417000       1.00800           0
     28747 TIP3     3804     TIP3     H2       HT       0.417000       1.00800           0
     28748 TIP3     3805     TIP3     OH2      OT      -0.834000       15.9994           0
     28749 TIP3     3805     TIP3     H1       HT       0.417000       1.00800           0
     28750 TIP3     3805     TIP3     H2       HT       0.417000       1.00800           0
     28751 TIP3     3806     TIP3     OH2      OT      -0.834000       15.9994           0
     28752 TIP3     3806     TIP3     H1       HT       0.417000       1.00800           0
     28753 TIP3     3806     TIP3     H2       HT       0.417000       1.00800           0
     28754 TIP3     3807     TIP3     OH2      OT      -0.834000       15.9994           0
     28755 TIP3     3807     TIP3     H1       HT       0.417000       1.00800           0
     28756 TIP3     3807     TIP3     H2       HT       0.417000       1.00800           0
     28757 TIP3     3808     TIP3     OH2      OT      -0.834000       15.9994           0
     28758 TIP3     3808     TIP3     H1       HT       0.417000       1.00800           0
     28759 TIP3     3808     TIP3     H2       HT       0.417000       1.00800           0
     28760 TIP3     3809     TIP3     OH2      OT      -0.834000       15.9994           0
     28761 TIP3     3809     TIP3     H1       HT       0.417000       1.00800           0
     28762 TIP3     3809     TIP3     H2       HT       0.417000       1.00800           0
     28763 TIP3     3810     TIP3     OH2      OT      -0.834000       15.9994           0
     28764 TIP3     3810     TIP3     H1       HT       0.417000       1.00800           0
     28765 TIP3     3810     TIP3     H2       HT       0.417000       1.00800           0
     28766 TIP3     3811     TIP3     OH2      OT      -0.834000       15.9994           0
     28767 TIP3     3811     TIP3     H1       HT       0.417000       1.00800           0
     28768 TIP3     3811     TIP3     H2       HT       0.417000       1.00800           0
     28769 TIP3     3812     TIP3     OH2      OT      -0.834000       15.9994           0
     28770 TIP3     3812     TIP3     H1       HT       0.417000       1.00800           0
     28771 TIP3     3812     TIP3     H2       HT       0.417000       1.00800           0
     28772 TIP3     3813     TIP3     OH2      OT      -0.834000       15.9994           0
     28773 TIP3     3813     TIP3     H1       HT       0.417000       1.00800           0
     28774 TIP3     3813     TIP3     H2       HT       0.417000       1.00800           0
     28775 TIP3     3814     TIP3     OH2      OT      -0.834000       15.9994           0
     28776 TIP3     3814     TIP3     H1       HT       0.417000       1.00800           0
     28777 TIP3     3814     TIP3     H2       HT       0.417000       1.00800           0
     28778 TIP3     3815     TIP3     OH2      OT      -0.834000       15.9994           0
     28779 TIP3     3815     TIP3     H1       HT       0.417000       1.00800           0
     28780 TIP3     3815     TIP3     H2       HT       0.417000       1.00800           0
     28781 TIP3     3816     TIP3     OH2      OT      -0.834000       15.9994           0
     28782 TIP3     3816     TIP3     H1       HT       0.417000       1.00800           0
     28783 TIP3     3816     TIP3     H2       HT       0.417000       1.00800           0
     28784 TIP3     3817     TIP3     OH2      OT      -0.834000       15.9994           0
     28785 TIP3     3817     TIP3     H1       HT       0.417000       1.00800           0
     28786 TIP3     3817     TIP3     H2       HT       0.417000       1.00800           0
     28787 TIP3     3818     TIP3     OH2      OT      -0.834000       15.9994           0
     28788 TIP3     3818     TIP3     H1       HT       0.417000       1.00800           0
     28789 TIP3     3818     TIP3     H2       HT       0.417000       1.00800           0
     28790 TIP3     3819     TIP3     OH2      OT      -0.834000       15.9994           0
     28791 TIP3     3819     TIP3     H1       HT       0.417000       1.00800           0
     28792 TIP3     3819     TIP3     H2       HT       0.417000       1.00800           0
     28793 TIP3     3820     TIP3     OH2      OT      -0.834000       15.9994           0
     28794 TIP3     3820     TIP3     H1       HT       0.417000       1.00800           0
     28795 TIP3     3820     TIP3     H2       HT       0.417000       1.00800           0
     28796 TIP3     3821     TIP3     OH2      OT      -0.834000       15.9994           0
     28797 TIP3     3821     TIP3     H1       HT       0.417000       1.00800           0
     28798 TIP3     3821     TIP3     H2       HT       0.417000       1.00800           0
     28799 TIP3     3822     TIP3     OH2      OT      -0.834000       15.9994           0
     28800 TIP3     3822     TIP3     H1       HT       0.417000       1.00800           0
     28801 TIP3     3822     TIP3     H2       HT       0.417000       1.00800           0
     28802 TIP3     3823     TIP3     OH2      OT      -0.834000       15.9994           0
     28803 TIP3     3823     TIP3     H1       HT       0.417000       1.00800           0
     28804 TIP3     3823     TIP3     H2       HT       0.417000       1.00800           0
     28805 TIP3     3824     TIP3     OH2      OT      -0.834000       15.9994           0
     28806 TIP3     3824     TIP3     H1       HT       0.417000       1.00800           0
     28807 TIP3     3824     TIP3     H2       HT       0.417000       1.00800           0
     28808 TIP3     3825     TIP3     OH2      OT      -0.834000       15.9994           0
     28809 TIP3     3825     TIP3     H1       HT       0.417000       1.00800           0
     28810 TIP3     3825     TIP3     H2       HT       0.417000       1.00800           0
     28811 TIP3     3826     TIP3     OH2      OT      -0.834000       15.9994           0
     28812 TIP3     3826     TIP3     H1       HT       0.417000       1.00800           0
     28813 TIP3     3826     TIP3     H2       HT       0.417000       1.00800           0
     28814 TIP3     3827     TIP3     OH2      OT      -0.834000       15.9994           0
     28815 TIP3     3827     TIP3     H1       HT       0.417000       1.00800           0
     28816 TIP3     3827     TIP3     H2       HT       0.417000       1.00800           0
     28817 TIP3     3828     TIP3     OH2      OT      -0.834000       15.9994           0
     28818 TIP3     3828     TIP3     H1       HT       0.417000       1.00800           0
     28819 TIP3     3828     TIP3     H2       HT       0.417000       1.00800           0
     28820 TIP3     3829     TIP3     OH2      OT      -0.834000       15.9994           0
     28821 TIP3     3829     TIP3     H1       HT       0.417000       1.00800           0
     28822 TIP3     3829     TIP3     H2       HT       0.417000       1.00800           0
     28823 TIP3     3830     TIP3     OH2      OT      -0.834000       15.9994           0
     28824 TIP3     3830     TIP3     H1       HT       0.417000       1.00800           0
     28825 TIP3     3830     TIP3     H2       HT       0.417000       1.00800           0
     28826 TIP3     3831     TIP3     OH2      OT      -0.834000       15.9994           0
     28827 TIP3     3831     TIP3     H1       HT       0.417000       1.00800           0
     28828 TIP3     3831     TIP3     H2       HT       0.417000       1.00800           0
     28829 TIP3     3832     TIP3     OH2      OT      -0.834000       15.9994           0
     28830 TIP3     3832     TIP3     H1       HT       0.417000       1.00800           0
     28831 TIP3     3832     TIP3     H2       HT       0.417000       1.00800           0
     28832 TIP3     3833     TIP3     OH2      OT      -0.834000       15.9994           0
     28833 TIP3     3833     TIP3     H1       HT       0.417000       1.00800           0
     28834 TIP3     3833     TIP3     H2       HT       0.417000       1.00800           0
     28835 TIP3     3834     TIP3     OH2      OT      -0.834000       15.9994           0
     28836 TIP3     3834     TIP3     H1       HT       0.417000       1.00800           0
     28837 TIP3     3834     TIP3     H2       HT       0.417000       1.00800           0
     28838 TIP3     3835     TIP3     OH2      OT      -0.834000       15.9994           0
     28839 TIP3     3835     TIP3     H1       HT       0.417000       1.00800           0
     28840 TIP3     3835     TIP3     H2       HT       0.417000       1.00800           0
     28841 TIP3     3836     TIP3     OH2      OT      -0.834000       15.9994           0
     28842 TIP3     3836     TIP3     H1       HT       0.417000       1.00800           0
     28843 TIP3     3836     TIP3     H2       HT       0.417000       1.00800           0
     28844 TIP3     3837     TIP3     OH2      OT      -0.834000       15.9994           0
     28845 TIP3     3837     TIP3     H1       HT       0.417000       1.00800           0
     28846 TIP3     3837     TIP3     H2       HT       0.417000       1.00800           0
     28847 TIP3     3838     TIP3     OH2      OT      -0.834000       15.9994           0
     28848 TIP3     3838     TIP3     H1       HT       0.417000       1.00800           0
     28849 TIP3     3838     TIP3     H2       HT       0.417000       1.00800           0
     28850 TIP3     3839     TIP3     OH2      OT      -0.834000       15.9994           0
     28851 TIP3     3839     TIP3     H1       HT       0.417000       1.00800           0
     28852 TIP3     3839     TIP3     H2       HT       0.417000       1.00800           0
     28853 TIP3     3840     TIP3     OH2      OT      -0.834000       15.9994           0
     28854 TIP3     3840     TIP3     H1       HT       0.417000       1.00800           0
     28855 TIP3     3840     TIP3     H2       HT       0.417000       1.00800           0
     28856 TIP3     3841     TIP3     OH2      OT      -0.834000       15.9994           0
     28857 TIP3     3841     TIP3     H1       HT       0.417000       1.00800           0
     28858 TIP3     3841     TIP3     H2       HT       0.417000       1.00800           0
     28859 TIP3     3842     TIP3     OH2      OT      -0.834000       15.9994           0
     28860 TIP3     3842     TIP3     H1       HT       0.417000       1.00800           0
     28861 TIP3     3842     TIP3     H2       HT       0.417000       1.00800           0
     28862 TIP3     3843     TIP3     OH2      OT      -0.834000       15.9994           0
     28863 TIP3     3843     TIP3     H1       HT       0.417000       1.00800           0
     28864 TIP3     3843     TIP3     H2       HT       0.417000       1.00800           0
     28865 TIP3     3844     TIP3     OH2      OT      -0.834000       15.9994           0
     28866 TIP3     3844     TIP3     H1       HT       0.417000       1.00800           0
     28867 TIP3     3844     TIP3     H2       HT       0.417000       1.00800           0
     28868 TIP3     3845     TIP3     OH2      OT      -0.834000       15.9994           0
     28869 TIP3     3845     TIP3     H1       HT       0.417000       1.00800           0
     28870 TIP3     3845     TIP3     H2       HT       0.417000       1.00800           0
     28871 TIP3     3846     TIP3     OH2      OT      -0.834000       15.9994           0
     28872 TIP3     3846     TIP3     H1       HT       0.417000       1.00800           0
     28873 TIP3     3846     TIP3     H2       HT       0.417000       1.00800           0
     28874 TIP3     3847     TIP3     OH2      OT      -0.834000       15.9994           0
     28875 TIP3     3847     TIP3     H1       HT       0.417000       1.00800           0
     28876 TIP3     3847     TIP3     H2       HT       0.417000       1.00800           0
     28877 TIP3     3848     TIP3     OH2      OT      -0.834000       15.9994           0
     28878 TIP3     3848     TIP3     H1       HT       0.417000       1.00800           0
     28879 TIP3     3848     TIP3     H2       HT       0.417000       1.00800           0
     28880 TIP3     3849     TIP3     OH2      OT      -0.834000       15.9994           0
     28881 TIP3     3849     TIP3     H1       HT       0.417000       1.00800           0
     28882 TIP3     3849     TIP3     H2       HT       0.417000       1.00800           0
     28883 TIP3     3850     TIP3     OH2      OT      -0.834000       15.9994           0
     28884 TIP3     3850     TIP3     H1       HT       0.417000       1.00800           0
     28885 TIP3     3850     TIP3     H2       HT       0.417000       1.00800           0
     28886 TIP3     3851     TIP3     OH2      OT      -0.834000       15.9994           0
     28887 TIP3     3851     TIP3     H1       HT       0.417000       1.00800           0
     28888 TIP3     3851     TIP3     H2       HT       0.417000       1.00800           0
     28889 TIP3     3852     TIP3     OH2      OT      -0.834000       15.9994           0
     28890 TIP3     3852     TIP3     H1       HT       0.417000       1.00800           0
     28891 TIP3     3852     TIP3     H2       HT       0.417000       1.00800           0
     28892 TIP3     3853     TIP3     OH2      OT      -0.834000       15.9994           0
     28893 TIP3     3853     TIP3     H1       HT       0.417000       1.00800           0
     28894 TIP3     3853     TIP3     H2       HT       0.417000       1.00800           0
     28895 TIP3     3854     TIP3     OH2      OT      -0.834000       15.9994           0
     28896 TIP3     3854     TIP3     H1       HT       0.417000       1.00800           0
     28897 TIP3     3854     TIP3     H2       HT       0.417000       1.00800           0
     28898 TIP3     3855     TIP3     OH2      OT      -0.834000       15.9994           0
     28899 TIP3     3855     TIP3     H1       HT       0.417000       1.00800           0
     28900 TIP3     3855     TIP3     H2       HT       0.417000       1.00800           0
     28901 TIP3     3856     TIP3     OH2      OT      -0.834000       15.9994           0
     28902 TIP3     3856     TIP3     H1       HT       0.417000       1.00800           0
     28903 TIP3     3856     TIP3     H2       HT       0.417000       1.00800           0
     28904 TIP3     3857     TIP3     OH2      OT      -0.834000       15.9994           0
     28905 TIP3     3857     TIP3     H1       HT       0.417000       1.00800           0
     28906 TIP3     3857     TIP3     H2       HT       0.417000       1.00800           0
     28907 TIP3     3858     TIP3     OH2      OT      -0.834000       15.9994           0
     28908 TIP3     3858     TIP3     H1       HT       0.417000       1.00800           0
     28909 TIP3     3858     TIP3     H2       HT       0.417000       1.00800           0
     28910 TIP3     3859     TIP3     OH2      OT      -0.834000       15.9994           0
     28911 TIP3     3859     TIP3     H1       HT       0.417000       1.00800           0
     28912 TIP3     3859     TIP3     H2       HT       0.417000       1.00800           0
     28913 TIP3     3860     TIP3     OH2      OT      -0.834000       15.9994           0
     28914 TIP3     3860     TIP3     H1       HT       0.417000       1.00800           0
     28915 TIP3     3860     TIP3     H2       HT       0.417000       1.00800           0
     28916 TIP3     3861     TIP3     OH2      OT      -0.834000       15.9994           0
     28917 TIP3     3861     TIP3     H1       HT       0.417000       1.00800           0
     28918 TIP3     3861     TIP3     H2       HT       0.417000       1.00800           0
     28919 TIP3     3862     TIP3     OH2      OT      -0.834000       15.9994           0
     28920 TIP3     3862     TIP3     H1       HT       0.417000       1.00800           0
     28921 TIP3     3862     TIP3     H2       HT       0.417000       1.00800           0
     28922 TIP3     3863     TIP3     OH2      OT      -0.834000       15.9994           0
     28923 TIP3     3863     TIP3     H1       HT       0.417000       1.00800           0
     28924 TIP3     3863     TIP3     H2       HT       0.417000       1.00800           0
     28925 TIP3     3864     TIP3     OH2      OT      -0.834000       15.9994           0
     28926 TIP3     3864     TIP3     H1       HT       0.417000       1.00800           0
     28927 TIP3     3864     TIP3     H2       HT       0.417000       1.00800           0
     28928 TIP3     3865     TIP3     OH2      OT      -0.834000       15.9994           0
     28929 TIP3     3865     TIP3     H1       HT       0.417000       1.00800           0
     28930 TIP3     3865     TIP3     H2       HT       0.417000       1.00800           0
     28931 TIP3     3866     TIP3     OH2      OT      -0.834000       15.9994           0
     28932 TIP3     3866     TIP3     H1       HT       0.417000       1.00800           0
     28933 TIP3     3866     TIP3     H2       HT       0.417000       1.00800           0
     28934 TIP3     3867     TIP3     OH2      OT      -0.834000       15.9994           0
     28935 TIP3     3867     TIP3     H1       HT       0.417000       1.00800           0
     28936 TIP3     3867     TIP3     H2       HT       0.417000       1.00800           0
     28937 TIP3     3868     TIP3     OH2      OT      -0.834000       15.9994           0
     28938 TIP3     3868     TIP3     H1       HT       0.417000       1.00800           0
     28939 TIP3     3868     TIP3     H2       HT       0.417000       1.00800           0
     28940 TIP3     3869     TIP3     OH2      OT      -0.834000       15.9994           0
     28941 TIP3     3869     TIP3     H1       HT       0.417000       1.00800           0
     28942 TIP3     3869     TIP3     H2       HT       0.417000       1.00800           0
     28943 TIP3     3870     TIP3     OH2      OT      -0.834000       15.9994           0
     28944 TIP3     3870     TIP3     H1       HT       0.417000       1.00800           0
     28945 TIP3     3870     TIP3     H2       HT       0.417000       1.00800           0
     28946 TIP3     3871     TIP3     OH2      OT      -0.834000       15.9994           0
     28947 TIP3     3871     TIP3     H1       HT       0.417000       1.00800           0
     28948 TIP3     3871     TIP3     H2       HT       0.417000       1.00800           0
     28949 TIP3     3872     TIP3     OH2      OT      -0.834000       15.9994           0
     28950 TIP3     3872     TIP3     H1       HT       0.417000       1.00800           0
     28951 TIP3     3872     TIP3     H2       HT       0.417000       1.00800           0
     28952 TIP3     3873     TIP3     OH2      OT      -0.834000       15.9994           0
     28953 TIP3     3873     TIP3     H1       HT       0.417000       1.00800           0
     28954 TIP3     3873     TIP3     H2       HT       0.417000       1.00800           0
     28955 TIP3     3874     TIP3     OH2      OT      -0.834000       15.9994           0
     28956 TIP3     3874     TIP3     H1       HT       0.417000       1.00800           0
     28957 TIP3     3874     TIP3     H2       HT       0.417000       1.00800           0
     28958 TIP3     3875     TIP3     OH2      OT      -0.834000       15.9994           0
     28959 TIP3     3875     TIP3     H1       HT       0.417000       1.00800           0
     28960 TIP3     3875     TIP3     H2       HT       0.417000       1.00800           0
     28961 TIP3     3876     TIP3     OH2      OT      -0.834000       15.9994           0
     28962 TIP3     3876     TIP3     H1       HT       0.417000       1.00800           0
     28963 TIP3     3876     TIP3     H2       HT       0.417000       1.00800           0
     28964 TIP3     3877     TIP3     OH2      OT      -0.834000       15.9994           0
     28965 TIP3     3877     TIP3     H1       HT       0.417000       1.00800           0
     28966 TIP3     3877     TIP3     H2       HT       0.417000       1.00800           0
     28967 TIP3     3878     TIP3     OH2      OT      -0.834000       15.9994           0
     28968 TIP3     3878     TIP3     H1       HT       0.417000       1.00800           0
     28969 TIP3     3878     TIP3     H2       HT       0.417000       1.00800           0
     28970 TIP3     3879     TIP3     OH2      OT      -0.834000       15.9994           0
     28971 TIP3     3879     TIP3     H1       HT       0.417000       1.00800           0
     28972 TIP3     3879     TIP3     H2       HT       0.417000       1.00800           0
     28973 TIP3     3880     TIP3     OH2      OT      -0.834000       15.9994           0
     28974 TIP3     3880     TIP3     H1       HT       0.417000       1.00800           0
     28975 TIP3     3880     TIP3     H2       HT       0.417000       1.00800           0
     28976 TIP3     3881     TIP3     OH2      OT      -0.834000       15.9994           0
     28977 TIP3     3881     TIP3     H1       HT       0.417000       1.00800           0
     28978 TIP3     3881     TIP3     H2       HT       0.417000       1.00800           0
     28979 TIP3     3882     TIP3     OH2      OT      -0.834000       15.9994           0
     28980 TIP3     3882     TIP3     H1       HT       0.417000       1.00800           0
     28981 TIP3     3882     TIP3     H2       HT       0.417000       1.00800           0
     28982 TIP3     3883     TIP3     OH2      OT      -0.834000       15.9994           0
     28983 TIP3     3883     TIP3     H1       HT       0.417000       1.00800           0
     28984 TIP3     3883     TIP3     H2       HT       0.417000       1.00800           0
     28985 TIP3     3884     TIP3     OH2      OT      -0.834000       15.9994           0
     28986 TIP3     3884     TIP3     H1       HT       0.417000       1.00800           0
     28987 TIP3     3884     TIP3     H2       HT       0.417000       1.00800           0
     28988 TIP3     3885     TIP3     OH2      OT      -0.834000       15.9994           0
     28989 TIP3     3885     TIP3     H1       HT       0.417000       1.00800           0
     28990 TIP3     3885     TIP3     H2       HT       0.417000       1.00800           0
     28991 TIP3     3886     TIP3     OH2      OT      -0.834000       15.9994           0
     28992 TIP3     3886     TIP3     H1       HT       0.417000       1.00800           0
     28993 TIP3     3886     TIP3     H2       HT       0.417000       1.00800           0
     28994 TIP3     3887     TIP3     OH2      OT      -0.834000       15.9994           0
     28995 TIP3     3887     TIP3     H1       HT       0.417000       1.00800           0
     28996 TIP3     3887     TIP3     H2       HT       0.417000       1.00800           0
     28997 TIP3     3888     TIP3     OH2      OT      -0.834000       15.9994           0
     28998 TIP3     3888     TIP3     H1       HT       0.417000       1.00800           0
     28999 TIP3     3888     TIP3     H2       HT       0.417000       1.00800           0
     29000 TIP3     3889     TIP3     OH2      OT      -0.834000       15.9994           0
     29001 TIP3     3889     TIP3     H1       HT       0.417000       1.00800           0
     29002 TIP3     3889     TIP3     H2       HT       0.417000       1.00800           0
     29003 TIP3     3890     TIP3     OH2      OT      -0.834000       15.9994           0
     29004 TIP3     3890     TIP3     H1       HT       0.417000       1.00800           0
     29005 TIP3     3890     TIP3     H2       HT       0.417000       1.00800           0
     29006 TIP3     3891     TIP3     OH2      OT      -0.834000       15.9994           0
     29007 TIP3     3891     TIP3     H1       HT       0.417000       1.00800           0
     29008 TIP3     3891     TIP3     H2       HT       0.417000       1.00800           0
     29009 TIP3     3892     TIP3     OH2      OT      -0.834000       15.9994           0
     29010 TIP3     3892     TIP3     H1       HT       0.417000       1.00800           0
     29011 TIP3     3892     TIP3     H2       HT       0.417000       1.00800           0
     29012 TIP3     3893     TIP3     OH2      OT      -0.834000       15.9994           0
     29013 TIP3     3893     TIP3     H1       HT       0.417000       1.00800           0
     29014 TIP3     3893     TIP3     H2       HT       0.417000       1.00800           0
     29015 TIP3     3894     TIP3     OH2      OT      -0.834000       15.9994           0
     29016 TIP3     3894     TIP3     H1       HT       0.417000       1.00800           0
     29017 TIP3     3894     TIP3     H2       HT       0.417000       1.00800           0
     29018 TIP3     3895     TIP3     OH2      OT      -0.834000       15.9994           0
     29019 TIP3     3895     TIP3     H1       HT       0.417000       1.00800           0
     29020 TIP3     3895     TIP3     H2       HT       0.417000       1.00800           0
     29021 TIP3     3896     TIP3     OH2      OT      -0.834000       15.9994           0
     29022 TIP3     3896     TIP3     H1       HT       0.417000       1.00800           0
     29023 TIP3     3896     TIP3     H2       HT       0.417000       1.00800           0
     29024 TIP3     3897     TIP3     OH2      OT      -0.834000       15.9994           0
     29025 TIP3     3897     TIP3     H1       HT       0.417000       1.00800           0
     29026 TIP3     3897     TIP3     H2       HT       0.417000       1.00800           0
     29027 TIP3     3898     TIP3     OH2      OT      -0.834000       15.9994           0
     29028 TIP3     3898     TIP3     H1       HT       0.417000       1.00800           0
     29029 TIP3     3898     TIP3     H2       HT       0.417000       1.00800           0
     29030 TIP3     3899     TIP3     OH2      OT      -0.834000       15.9994           0
     29031 TIP3     3899     TIP3     H1       HT       0.417000       1.00800           0
     29032 TIP3     3899     TIP3     H2       HT       0.417000       1.00800           0
     29033 TIP3     3900     TIP3     OH2      OT      -0.834000       15.9994           0
     29034 TIP3     3900     TIP3     H1       HT       0.417000       1.00800           0
     29035 TIP3     3900     TIP3     H2       HT       0.417000       1.00800           0
     29036 TIP3     3901     TIP3     OH2      OT      -0.834000       15.9994           0
     29037 TIP3     3901     TIP3     H1       HT       0.417000       1.00800           0
     29038 TIP3     3901     TIP3     H2       HT       0.417000       1.00800           0
     29039 TIP3     3902     TIP3     OH2      OT      -0.834000       15.9994           0
     29040 TIP3     3902     TIP3     H1       HT       0.417000       1.00800           0
     29041 TIP3     3902     TIP3     H2       HT       0.417000       1.00800           0
     29042 TIP3     3903     TIP3     OH2      OT      -0.834000       15.9994           0
     29043 TIP3     3903     TIP3     H1       HT       0.417000       1.00800           0
     29044 TIP3     3903     TIP3     H2       HT       0.417000       1.00800           0
     29045 TIP3     3904     TIP3     OH2      OT      -0.834000       15.9994           0
     29046 TIP3     3904     TIP3     H1       HT       0.417000       1.00800           0
     29047 TIP3     3904     TIP3     H2       HT       0.417000       1.00800           0
     29048 TIP3     3905     TIP3     OH2      OT      -0.834000       15.9994           0
     29049 TIP3     3905     TIP3     H1       HT       0.417000       1.00800           0
     29050 TIP3     3905     TIP3     H2       HT       0.417000       1.00800           0
     29051 TIP3     3906     TIP3     OH2      OT      -0.834000       15.9994           0
     29052 TIP3     3906     TIP3     H1       HT       0.417000       1.00800           0
     29053 TIP3     3906     TIP3     H2       HT       0.417000       1.00800           0
     29054 TIP3     3907     TIP3     OH2      OT      -0.834000       15.9994           0
     29055 TIP3     3907     TIP3     H1       HT       0.417000       1.00800           0
     29056 TIP3     3907     TIP3     H2       HT       0.417000       1.00800           0
     29057 TIP3     3908     TIP3     OH2      OT      -0.834000       15.9994           0
     29058 TIP3     3908     TIP3     H1       HT       0.417000       1.00800           0
     29059 TIP3     3908     TIP3     H2       HT       0.417000       1.00800           0
     29060 TIP3     3909     TIP3     OH2      OT      -0.834000       15.9994           0
     29061 TIP3     3909     TIP3     H1       HT       0.417000       1.00800           0
     29062 TIP3     3909     TIP3     H2       HT       0.417000       1.00800           0
     29063 TIP3     3910     TIP3     OH2      OT      -0.834000       15.9994           0
     29064 TIP3     3910     TIP3     H1       HT       0.417000       1.00800           0
     29065 TIP3     3910     TIP3     H2       HT       0.417000       1.00800           0
     29066 TIP3     3911     TIP3     OH2      OT      -0.834000       15.9994           0
     29067 TIP3     3911     TIP3     H1       HT       0.417000       1.00800           0
     29068 TIP3     3911     TIP3     H2       HT       0.417000       1.00800           0
     29069 TIP3     3912     TIP3     OH2      OT      -0.834000       15.9994           0
     29070 TIP3     3912     TIP3     H1       HT       0.417000       1.00800           0
     29071 TIP3     3912     TIP3     H2       HT       0.417000       1.00800           0
     29072 TIP3     3913     TIP3     OH2      OT      -0.834000       15.9994           0
     29073 TIP3     3913     TIP3     H1       HT       0.417000       1.00800           0
     29074 TIP3     3913     TIP3     H2       HT       0.417000       1.00800           0
     29075 TIP3     3914     TIP3     OH2      OT      -0.834000       15.9994           0
     29076 TIP3     3914     TIP3     H1       HT       0.417000       1.00800           0
     29077 TIP3     3914     TIP3     H2       HT       0.417000       1.00800           0
     29078 TIP3     3915     TIP3     OH2      OT      -0.834000       15.9994           0
     29079 TIP3     3915     TIP3     H1       HT       0.417000       1.00800           0
     29080 TIP3     3915     TIP3     H2       HT       0.417000       1.00800           0
     29081 TIP3     3916     TIP3     OH2      OT      -0.834000       15.9994           0
     29082 TIP3     3916     TIP3     H1       HT       0.417000       1.00800           0
     29083 TIP3     3916     TIP3     H2       HT       0.417000       1.00800           0
     29084 TIP3     3917     TIP3     OH2      OT      -0.834000       15.9994           0
     29085 TIP3     3917     TIP3     H1       HT       0.417000       1.00800           0
     29086 TIP3     3917     TIP3     H2       HT       0.417000       1.00800           0
     29087 TIP3     3918     TIP3     OH2      OT      -0.834000       15.9994           0
     29088 TIP3     3918     TIP3     H1       HT       0.417000       1.00800           0
     29089 TIP3     3918     TIP3     H2       HT       0.417000       1.00800           0
     29090 TIP3     3919     TIP3     OH2      OT      -0.834000       15.9994           0
     29091 TIP3     3919     TIP3     H1       HT       0.417000       1.00800           0
     29092 TIP3     3919     TIP3     H2       HT       0.417000       1.00800           0
     29093 TIP3     3920     TIP3     OH2      OT      -0.834000       15.9994           0
     29094 TIP3     3920     TIP3     H1       HT       0.417000       1.00800           0
     29095 TIP3     3920     TIP3     H2       HT       0.417000       1.00800           0
     29096 TIP3     3921     TIP3     OH2      OT      -0.834000       15.9994           0
     29097 TIP3     3921     TIP3     H1       HT       0.417000       1.00800           0
     29098 TIP3     3921     TIP3     H2       HT       0.417000       1.00800           0
     29099 TIP3     3922     TIP3     OH2      OT      -0.834000       15.9994           0
     29100 TIP3     3922     TIP3     H1       HT       0.417000       1.00800           0
     29101 TIP3     3922     TIP3     H2       HT       0.417000       1.00800           0
     29102 TIP3     3923     TIP3     OH2      OT      -0.834000       15.9994           0
     29103 TIP3     3923     TIP3     H1       HT       0.417000       1.00800           0
     29104 TIP3     3923     TIP3     H2       HT       0.417000       1.00800           0
     29105 TIP3     3924     TIP3     OH2      OT      -0.834000       15.9994           0
     29106 TIP3     3924     TIP3     H1       HT       0.417000       1.00800           0
     29107 TIP3     3924     TIP3     H2       HT       0.417000       1.00800           0
     29108 TIP3     3925     TIP3     OH2      OT      -0.834000       15.9994           0
     29109 TIP3     3925     TIP3     H1       HT       0.417000       1.00800           0
     29110 TIP3     3925     TIP3     H2       HT       0.417000       1.00800           0
     29111 TIP3     3926     TIP3     OH2      OT      -0.834000       15.9994           0
     29112 TIP3     3926     TIP3     H1       HT       0.417000       1.00800           0
     29113 TIP3     3926     TIP3     H2       HT       0.417000       1.00800           0
     29114 TIP3     3927     TIP3     OH2      OT      -0.834000       15.9994           0
     29115 TIP3     3927     TIP3     H1       HT       0.417000       1.00800           0
     29116 TIP3     3927     TIP3     H2       HT       0.417000       1.00800           0
     29117 TIP3     3928     TIP3     OH2      OT      -0.834000       15.9994           0
     29118 TIP3     3928     TIP3     H1       HT       0.417000       1.00800           0
     29119 TIP3     3928     TIP3     H2       HT       0.417000       1.00800           0
     29120 TIP3     3929     TIP3     OH2      OT      -0.834000       15.9994           0
     29121 TIP3     3929     TIP3     H1       HT       0.417000       1.00800           0
     29122 TIP3     3929     TIP3     H2       HT       0.417000       1.00800           0
     29123 TIP3     3930     TIP3     OH2      OT      -0.834000       15.9994           0
     29124 TIP3     3930     TIP3     H1       HT       0.417000       1.00800           0
     29125 TIP3     3930     TIP3     H2       HT       0.417000       1.00800           0
     29126 TIP3     3931     TIP3     OH2      OT      -0.834000       15.9994           0
     29127 TIP3     3931     TIP3     H1       HT       0.417000       1.00800           0
     29128 TIP3     3931     TIP3     H2       HT       0.417000       1.00800           0
     29129 TIP3     3932     TIP3     OH2      OT      -0.834000       15.9994           0
     29130 TIP3     3932     TIP3     H1       HT       0.417000       1.00800           0
     29131 TIP3     3932     TIP3     H2       HT       0.417000       1.00800           0
     29132 TIP3     3933     TIP3     OH2      OT      -0.834000       15.9994           0
     29133 TIP3     3933     TIP3     H1       HT       0.417000       1.00800           0
     29134 TIP3     3933     TIP3     H2       HT       0.417000       1.00800           0
     29135 TIP3     3934     TIP3     OH2      OT      -0.834000       15.9994           0
     29136 TIP3     3934     TIP3     H1       HT       0.417000       1.00800           0
     29137 TIP3     3934     TIP3     H2       HT       0.417000       1.00800           0
     29138 TIP3     3935     TIP3     OH2      OT      -0.834000       15.9994           0
     29139 TIP3     3935     TIP3     H1       HT       0.417000       1.00800           0
     29140 TIP3     3935     TIP3     H2       HT       0.417000       1.00800           0
     29141 TIP3     3936     TIP3     OH2      OT      -0.834000       15.9994           0
     29142 TIP3     3936     TIP3     H1       HT       0.417000       1.00800           0
     29143 TIP3     3936     TIP3     H2       HT       0.417000       1.00800           0
     29144 TIP3     3937     TIP3     OH2      OT      -0.834000       15.9994           0
     29145 TIP3     3937     TIP3     H1       HT       0.417000       1.00800           0
     29146 TIP3     3937     TIP3     H2       HT       0.417000       1.00800           0
     29147 TIP3     3938     TIP3     OH2      OT      -0.834000       15.9994           0
     29148 TIP3     3938     TIP3     H1       HT       0.417000       1.00800           0
     29149 TIP3     3938     TIP3     H2       HT       0.417000       1.00800           0
     29150 TIP3     3939     TIP3     OH2      OT      -0.834000       15.9994           0
     29151 TIP3     3939     TIP3     H1       HT       0.417000       1.00800           0
     29152 TIP3     3939     TIP3     H2       HT       0.417000       1.00800           0
     29153 TIP3     3940     TIP3     OH2      OT      -0.834000       15.9994           0
     29154 TIP3     3940     TIP3     H1       HT       0.417000       1.00800           0
     29155 TIP3     3940     TIP3     H2       HT       0.417000       1.00800           0
     29156 TIP3     3941     TIP3     OH2      OT      -0.834000       15.9994           0
     29157 TIP3     3941     TIP3     H1       HT       0.417000       1.00800           0
     29158 TIP3     3941     TIP3     H2       HT       0.417000       1.00800           0
     29159 TIP3     3942     TIP3     OH2      OT      -0.834000       15.9994           0
     29160 TIP3     3942     TIP3     H1       HT       0.417000       1.00800           0
     29161 TIP3     3942     TIP3     H2       HT       0.417000       1.00800           0
     29162 TIP3     3943     TIP3     OH2      OT      -0.834000       15.9994           0
     29163 TIP3     3943     TIP3     H1       HT       0.417000       1.00800           0
     29164 TIP3     3943     TIP3     H2       HT       0.417000       1.00800           0
     29165 TIP3     3944     TIP3     OH2      OT      -0.834000       15.9994           0
     29166 TIP3     3944     TIP3     H1       HT       0.417000       1.00800           0
     29167 TIP3     3944     TIP3     H2       HT       0.417000       1.00800           0
     29168 TIP3     3945     TIP3     OH2      OT      -0.834000       15.9994           0
     29169 TIP3     3945     TIP3     H1       HT       0.417000       1.00800           0
     29170 TIP3     3945     TIP3     H2       HT       0.417000       1.00800           0
     29171 TIP3     3946     TIP3     OH2      OT      -0.834000       15.9994           0
     29172 TIP3     3946     TIP3     H1       HT       0.417000       1.00800           0
     29173 TIP3     3946     TIP3     H2       HT       0.417000       1.00800           0
     29174 TIP3     3947     TIP3     OH2      OT      -0.834000       15.9994           0
     29175 TIP3     3947     TIP3     H1       HT       0.417000       1.00800           0
     29176 TIP3     3947     TIP3     H2       HT       0.417000       1.00800           0
     29177 TIP3     3948     TIP3     OH2      OT      -0.834000       15.9994           0
     29178 TIP3     3948     TIP3     H1       HT       0.417000       1.00800           0
     29179 TIP3     3948     TIP3     H2       HT       0.417000       1.00800           0
     29180 TIP3     3949     TIP3     OH2      OT      -0.834000       15.9994           0
     29181 TIP3     3949     TIP3     H1       HT       0.417000       1.00800           0
     29182 TIP3     3949     TIP3     H2       HT       0.417000       1.00800           0
     29183 TIP3     3950     TIP3     OH2      OT      -0.834000       15.9994           0
     29184 TIP3     3950     TIP3     H1       HT       0.417000       1.00800           0
     29185 TIP3     3950     TIP3     H2       HT       0.417000       1.00800           0
     29186 TIP3     3951     TIP3     OH2      OT      -0.834000       15.9994           0
     29187 TIP3     3951     TIP3     H1       HT       0.417000       1.00800           0
     29188 TIP3     3951     TIP3     H2       HT       0.417000       1.00800           0
     29189 TIP3     3952     TIP3     OH2      OT      -0.834000       15.9994           0
     29190 TIP3     3952     TIP3     H1       HT       0.417000       1.00800           0
     29191 TIP3     3952     TIP3     H2       HT       0.417000       1.00800           0
     29192 TIP3     3953     TIP3     OH2      OT      -0.834000       15.9994           0
     29193 TIP3     3953     TIP3     H1       HT       0.417000       1.00800           0
     29194 TIP3     3953     TIP3     H2       HT       0.417000       1.00800           0
     29195 TIP3     3954     TIP3     OH2      OT      -0.834000       15.9994           0
     29196 TIP3     3954     TIP3     H1       HT       0.417000       1.00800           0
     29197 TIP3     3954     TIP3     H2       HT       0.417000       1.00800           0
     29198 TIP3     3955     TIP3     OH2      OT      -0.834000       15.9994           0
     29199 TIP3     3955     TIP3     H1       HT       0.417000       1.00800           0
     29200 TIP3     3955     TIP3     H2       HT       0.417000       1.00800           0
     29201 TIP3     3956     TIP3     OH2      OT      -0.834000       15.9994           0
     29202 TIP3     3956     TIP3     H1       HT       0.417000       1.00800           0
     29203 TIP3     3956     TIP3     H2       HT       0.417000       1.00800           0
     29204 TIP3     3957     TIP3     OH2      OT      -0.834000       15.9994           0
     29205 TIP3     3957     TIP3     H1       HT       0.417000       1.00800           0
     29206 TIP3     3957     TIP3     H2       HT       0.417000       1.00800           0
     29207 TIP3     3958     TIP3     OH2      OT      -0.834000       15.9994           0
     29208 TIP3     3958     TIP3     H1       HT       0.417000       1.00800           0
     29209 TIP3     3958     TIP3     H2       HT       0.417000       1.00800           0
     29210 TIP3     3959     TIP3     OH2      OT      -0.834000       15.9994           0
     29211 TIP3     3959     TIP3     H1       HT       0.417000       1.00800           0
     29212 TIP3     3959     TIP3     H2       HT       0.417000       1.00800           0
     29213 TIP3     3960     TIP3     OH2      OT      -0.834000       15.9994           0
     29214 TIP3     3960     TIP3     H1       HT       0.417000       1.00800           0
     29215 TIP3     3960     TIP3     H2       HT       0.417000       1.00800           0
     29216 TIP3     3961     TIP3     OH2      OT      -0.834000       15.9994           0
     29217 TIP3     3961     TIP3     H1       HT       0.417000       1.00800           0
     29218 TIP3     3961     TIP3     H2       HT       0.417000       1.00800           0
     29219 TIP3     3962     TIP3     OH2      OT      -0.834000       15.9994           0
     29220 TIP3     3962     TIP3     H1       HT       0.417000       1.00800           0
     29221 TIP3     3962     TIP3     H2       HT       0.417000       1.00800           0
     29222 TIP3     3963     TIP3     OH2      OT      -0.834000       15.9994           0
     29223 TIP3     3963     TIP3     H1       HT       0.417000       1.00800           0
     29224 TIP3     3963     TIP3     H2       HT       0.417000       1.00800           0
     29225 TIP3     3964     TIP3     OH2      OT      -0.834000       15.9994           0
     29226 TIP3     3964     TIP3     H1       HT       0.417000       1.00800           0
     29227 TIP3     3964     TIP3     H2       HT       0.417000       1.00800           0
     29228 TIP3     3965     TIP3     OH2      OT      -0.834000       15.9994           0
     29229 TIP3     3965     TIP3     H1       HT       0.417000       1.00800           0
     29230 TIP3     3965     TIP3     H2       HT       0.417000       1.00800           0
     29231 TIP3     3966     TIP3     OH2      OT      -0.834000       15.9994           0
     29232 TIP3     3966     TIP3     H1       HT       0.417000       1.00800           0
     29233 TIP3     3966     TIP3     H2       HT       0.417000       1.00800           0
     29234 TIP3     3967     TIP3     OH2      OT      -0.834000       15.9994           0
     29235 TIP3     3967     TIP3     H1       HT       0.417000       1.00800           0
     29236 TIP3     3967     TIP3     H2       HT       0.417000       1.00800           0
     29237 TIP3     3968     TIP3     OH2      OT      -0.834000       15.9994           0
     29238 TIP3     3968     TIP3     H1       HT       0.417000       1.00800           0
     29239 TIP3     3968     TIP3     H2       HT       0.417000       1.00800           0
     29240 TIP3     3969     TIP3     OH2      OT      -0.834000       15.9994           0
     29241 TIP3     3969     TIP3     H1       HT       0.417000       1.00800           0
     29242 TIP3     3969     TIP3     H2       HT       0.417000       1.00800           0
     29243 TIP3     3970     TIP3     OH2      OT      -0.834000       15.9994           0
     29244 TIP3     3970     TIP3     H1       HT       0.417000       1.00800           0
     29245 TIP3     3970     TIP3     H2       HT       0.417000       1.00800           0
     29246 TIP3     3971     TIP3     OH2      OT      -0.834000       15.9994           0
     29247 TIP3     3971     TIP3     H1       HT       0.417000       1.00800           0
     29248 TIP3     3971     TIP3     H2       HT       0.417000       1.00800           0
     29249 TIP3     3972     TIP3     OH2      OT      -0.834000       15.9994           0
     29250 TIP3     3972     TIP3     H1       HT       0.417000       1.00800           0
     29251 TIP3     3972     TIP3     H2       HT       0.417000       1.00800           0
     29252 TIP3     3973     TIP3     OH2      OT      -0.834000       15.9994           0
     29253 TIP3     3973     TIP3     H1       HT       0.417000       1.00800           0
     29254 TIP3     3973     TIP3     H2       HT       0.417000       1.00800           0
     29255 TIP3     3974     TIP3     OH2      OT      -0.834000       15.9994           0
     29256 TIP3     3974     TIP3     H1       HT       0.417000       1.00800           0
     29257 TIP3     3974     TIP3     H2       HT       0.417000       1.00800           0
     29258 TIP3     3975     TIP3     OH2      OT      -0.834000       15.9994           0
     29259 TIP3     3975     TIP3     H1       HT       0.417000       1.00800           0
     29260 TIP3     3975     TIP3     H2       HT       0.417000       1.00800           0
     29261 TIP3     3976     TIP3     OH2      OT      -0.834000       15.9994           0
     29262 TIP3     3976     TIP3     H1       HT       0.417000       1.00800           0
     29263 TIP3     3976     TIP3     H2       HT       0.417000       1.00800           0
     29264 TIP3     3977     TIP3     OH2      OT      -0.834000       15.9994           0
     29265 TIP3     3977     TIP3     H1       HT       0.417000       1.00800           0
     29266 TIP3     3977     TIP3     H2       HT       0.417000       1.00800           0
     29267 TIP3     3978     TIP3     OH2      OT      -0.834000       15.9994           0
     29268 TIP3     3978     TIP3     H1       HT       0.417000       1.00800           0
     29269 TIP3     3978     TIP3     H2       HT       0.417000       1.00800           0
     29270 TIP3     3979     TIP3     OH2      OT      -0.834000       15.9994           0
     29271 TIP3     3979     TIP3     H1       HT       0.417000       1.00800           0
     29272 TIP3     3979     TIP3     H2       HT       0.417000       1.00800           0
     29273 TIP3     3980     TIP3     OH2      OT      -0.834000       15.9994           0
     29274 TIP3     3980     TIP3     H1       HT       0.417000       1.00800           0
     29275 TIP3     3980     TIP3     H2       HT       0.417000       1.00800           0
     29276 TIP3     3981     TIP3     OH2      OT      -0.834000       15.9994           0
     29277 TIP3     3981     TIP3     H1       HT       0.417000       1.00800           0
     29278 TIP3     3981     TIP3     H2       HT       0.417000       1.00800           0
     29279 TIP3     3982     TIP3     OH2      OT      -0.834000       15.9994           0
     29280 TIP3     3982     TIP3     H1       HT       0.417000       1.00800           0
     29281 TIP3     3982     TIP3     H2       HT       0.417000       1.00800           0
     29282 TIP3     3983     TIP3     OH2      OT      -0.834000       15.9994           0
     29283 TIP3     3983     TIP3     H1       HT       0.417000       1.00800           0
     29284 TIP3     3983     TIP3     H2       HT       0.417000       1.00800           0
     29285 TIP3     3984     TIP3     OH2      OT      -0.834000       15.9994           0
     29286 TIP3     3984     TIP3     H1       HT       0.417000       1.00800           0
     29287 TIP3     3984     TIP3     H2       HT       0.417000       1.00800           0
     29288 TIP3     3985     TIP3     OH2      OT      -0.834000       15.9994           0
     29289 TIP3     3985     TIP3     H1       HT       0.417000       1.00800           0
     29290 TIP3     3985     TIP3     H2       HT       0.417000       1.00800           0
     29291 TIP3     3986     TIP3     OH2      OT      -0.834000       15.9994           0
     29292 TIP3     3986     TIP3     H1       HT       0.417000       1.00800           0
     29293 TIP3     3986     TIP3     H2       HT       0.417000       1.00800           0
     29294 TIP3     3987     TIP3     OH2      OT      -0.834000       15.9994           0
     29295 TIP3     3987     TIP3     H1       HT       0.417000       1.00800           0
     29296 TIP3     3987     TIP3     H2       HT       0.417000       1.00800           0
     29297 TIP3     3988     TIP3     OH2      OT      -0.834000       15.9994           0
     29298 TIP3     3988     TIP3     H1       HT       0.417000       1.00800           0
     29299 TIP3     3988     TIP3     H2       HT       0.417000       1.00800           0
     29300 TIP3     3989     TIP3     OH2      OT      -0.834000       15.9994           0
     29301 TIP3     3989     TIP3     H1       HT       0.417000       1.00800           0
     29302 TIP3     3989     TIP3     H2       HT       0.417000       1.00800           0
     29303 TIP3     3990     TIP3     OH2      OT      -0.834000       15.9994           0
     29304 TIP3     3990     TIP3     H1       HT       0.417000       1.00800           0
     29305 TIP3     3990     TIP3     H2       HT       0.417000       1.00800           0
     29306 TIP3     3991     TIP3     OH2      OT      -0.834000       15.9994           0
     29307 TIP3     3991     TIP3     H1       HT       0.417000       1.00800           0
     29308 TIP3     3991     TIP3     H2       HT       0.417000       1.00800           0
     29309 TIP3     3992     TIP3     OH2      OT      -0.834000       15.9994           0
     29310 TIP3     3992     TIP3     H1       HT       0.417000       1.00800           0
     29311 TIP3     3992     TIP3     H2       HT       0.417000       1.00800           0
     29312 TIP3     3993     TIP3     OH2      OT      -0.834000       15.9994           0
     29313 TIP3     3993     TIP3     H1       HT       0.417000       1.00800           0
     29314 TIP3     3993     TIP3     H2       HT       0.417000       1.00800           0
     29315 TIP3     3994     TIP3     OH2      OT      -0.834000       15.9994           0
     29316 TIP3     3994     TIP3     H1       HT       0.417000       1.00800           0
     29317 TIP3     3994     TIP3     H2       HT       0.417000       1.00800           0
     29318 TIP3     3995     TIP3     OH2      OT      -0.834000       15.9994           0
     29319 TIP3     3995     TIP3     H1       HT       0.417000       1.00800           0
     29320 TIP3     3995     TIP3     H2       HT       0.417000       1.00800           0
     29321 TIP3     3996     TIP3     OH2      OT      -0.834000       15.9994           0
     29322 TIP3     3996     TIP3     H1       HT       0.417000       1.00800           0
     29323 TIP3     3996     TIP3     H2       HT       0.417000       1.00800           0
     29324 TIP3     3997     TIP3     OH2      OT      -0.834000       15.9994           0
     29325 TIP3     3997     TIP3     H1       HT       0.417000       1.00800           0
     29326 TIP3     3997     TIP3     H2       HT       0.417000       1.00800           0
     29327 TIP3     3998     TIP3     OH2      OT      -0.834000       15.9994           0
     29328 TIP3     3998     TIP3     H1       HT       0.417000       1.00800           0
     29329 TIP3     3998     TIP3     H2       HT       0.417000       1.00800           0
     29330 TIP3     3999     TIP3     OH2      OT      -0.834000       15.9994           0
     29331 TIP3     3999     TIP3     H1       HT       0.417000       1.00800           0
     29332 TIP3     3999     TIP3     H2       HT       0.417000       1.00800           0
     29333 TIP3     4000     TIP3     OH2      OT      -0.834000       15.9994           0
     29334 TIP3     4000     TIP3     H1       HT       0.417000       1.00800           0
     29335 TIP3     4000     TIP3     H2       HT       0.417000       1.00800           0
     29336 TIP3     4001     TIP3     OH2      OT      -0.834000       15.9994           0
     29337 TIP3     4001     TIP3     H1       HT       0.417000       1.00800           0
     29338 TIP3     4001     TIP3     H2       HT       0.417000       1.00800           0
     29339 TIP3     4002     TIP3     OH2      OT      -0.834000       15.9994           0
     29340 TIP3     4002     TIP3     H1       HT       0.417000       1.00800           0
     29341 TIP3     4002     TIP3     H2       HT       0.417000       1.00800           0
     29342 TIP3     4003     TIP3     OH2      OT      -0.834000       15.9994           0
     29343 TIP3     4003     TIP3     H1       HT       0.417000       1.00800           0
     29344 TIP3     4003     TIP3     H2       HT       0.417000       1.00800           0
     29345 TIP3     4004     TIP3     OH2      OT      -0.834000       15.9994           0
     29346 TIP3     4004     TIP3     H1       HT       0.417000       1.00800           0
     29347 TIP3     4004     TIP3     H2       HT       0.417000       1.00800           0
     29348 TIP3     4005     TIP3     OH2      OT      -0.834000       15.9994           0
     29349 TIP3     4005     TIP3     H1       HT       0.417000       1.00800           0
     29350 TIP3     4005     TIP3     H2       HT       0.417000       1.00800           0
     29351 TIP3     4006     TIP3     OH2      OT      -0.834000       15.9994           0
     29352 TIP3     4006     TIP3     H1       HT       0.417000       1.00800           0
     29353 TIP3     4006     TIP3     H2       HT       0.417000       1.00800           0
     29354 TIP3     4007     TIP3     OH2      OT      -0.834000       15.9994           0
     29355 TIP3     4007     TIP3     H1       HT       0.417000       1.00800           0
     29356 TIP3     4007     TIP3     H2       HT       0.417000       1.00800           0
     29357 TIP3     4008     TIP3     OH2      OT      -0.834000       15.9994           0
     29358 TIP3     4008     TIP3     H1       HT       0.417000       1.00800           0
     29359 TIP3     4008     TIP3     H2       HT       0.417000       1.00800           0
     29360 TIP3     4009     TIP3     OH2      OT      -0.834000       15.9994           0
     29361 TIP3     4009     TIP3     H1       HT       0.417000       1.00800           0
     29362 TIP3     4009     TIP3     H2       HT       0.417000       1.00800           0
     29363 TIP3     4010     TIP3     OH2      OT      -0.834000       15.9994           0
     29364 TIP3     4010     TIP3     H1       HT       0.417000       1.00800           0
     29365 TIP3     4010     TIP3     H2       HT       0.417000       1.00800           0
     29366 TIP3     4011     TIP3     OH2      OT      -0.834000       15.9994           0
     29367 TIP3     4011     TIP3     H1       HT       0.417000       1.00800           0
     29368 TIP3     4011     TIP3     H2       HT       0.417000       1.00800           0
     29369 TIP3     4012     TIP3     OH2      OT      -0.834000       15.9994           0
     29370 TIP3     4012     TIP3     H1       HT       0.417000       1.00800           0
     29371 TIP3     4012     TIP3     H2       HT       0.417000       1.00800           0
     29372 TIP3     4013     TIP3     OH2      OT      -0.834000       15.9994           0
     29373 TIP3     4013     TIP3     H1       HT       0.417000       1.00800           0
     29374 TIP3     4013     TIP3     H2       HT       0.417000       1.00800           0
     29375 TIP3     4014     TIP3     OH2      OT      -0.834000       15.9994           0
     29376 TIP3     4014     TIP3     H1       HT       0.417000       1.00800           0
     29377 TIP3     4014     TIP3     H2       HT       0.417000       1.00800           0
     29378 TIP3     4015     TIP3     OH2      OT      -0.834000       15.9994           0
     29379 TIP3     4015     TIP3     H1       HT       0.417000       1.00800           0
     29380 TIP3     4015     TIP3     H2       HT       0.417000       1.00800           0
     29381 TIP3     4016     TIP3     OH2      OT      -0.834000       15.9994           0
     29382 TIP3     4016     TIP3     H1       HT       0.417000       1.00800           0
     29383 TIP3     4016     TIP3     H2       HT       0.417000       1.00800           0
     29384 TIP3     4017     TIP3     OH2      OT      -0.834000       15.9994           0
     29385 TIP3     4017     TIP3     H1       HT       0.417000       1.00800           0
     29386 TIP3     4017     TIP3     H2       HT       0.417000       1.00800           0
     29387 TIP3     4018     TIP3     OH2      OT      -0.834000       15.9994           0
     29388 TIP3     4018     TIP3     H1       HT       0.417000       1.00800           0
     29389 TIP3     4018     TIP3     H2       HT       0.417000       1.00800           0
     29390 TIP3     4019     TIP3     OH2      OT      -0.834000       15.9994           0
     29391 TIP3     4019     TIP3     H1       HT       0.417000       1.00800           0
     29392 TIP3     4019     TIP3     H2       HT       0.417000       1.00800           0
     29393 TIP3     4020     TIP3     OH2      OT      -0.834000       15.9994           0
     29394 TIP3     4020     TIP3     H1       HT       0.417000       1.00800           0
     29395 TIP3     4020     TIP3     H2       HT       0.417000       1.00800           0
     29396 TIP3     4021     TIP3     OH2      OT      -0.834000       15.9994           0
     29397 TIP3     4021     TIP3     H1       HT       0.417000       1.00800           0
     29398 TIP3     4021     TIP3     H2       HT       0.417000       1.00800           0
     29399 TIP3     4022     TIP3     OH2      OT      -0.834000       15.9994           0
     29400 TIP3     4022     TIP3     H1       HT       0.417000       1.00800           0
     29401 TIP3     4022     TIP3     H2       HT       0.417000       1.00800           0
     29402 TIP3     4023     TIP3     OH2      OT      -0.834000       15.9994           0
     29403 TIP3     4023     TIP3     H1       HT       0.417000       1.00800           0
     29404 TIP3     4023     TIP3     H2       HT       0.417000       1.00800           0
     29405 TIP3     4024     TIP3     OH2      OT      -0.834000       15.9994           0
     29406 TIP3     4024     TIP3     H1       HT       0.417000       1.00800           0
     29407 TIP3     4024     TIP3     H2       HT       0.417000       1.00800           0
     29408 TIP3     4025     TIP3     OH2      OT      -0.834000       15.9994           0
     29409 TIP3     4025     TIP3     H1       HT       0.417000       1.00800           0
     29410 TIP3     4025     TIP3     H2       HT       0.417000       1.00800           0
     29411 TIP3     4026     TIP3     OH2      OT      -0.834000       15.9994           0
     29412 TIP3     4026     TIP3     H1       HT       0.417000       1.00800           0
     29413 TIP3     4026     TIP3     H2       HT       0.417000       1.00800           0
     29414 TIP3     4027     TIP3     OH2      OT      -0.834000       15.9994           0
     29415 TIP3     4027     TIP3     H1       HT       0.417000       1.00800           0
     29416 TIP3     4027     TIP3     H2       HT       0.417000       1.00800           0
     29417 TIP3     4028     TIP3     OH2      OT      -0.834000       15.9994           0
     29418 TIP3     4028     TIP3     H1       HT       0.417000       1.00800           0
     29419 TIP3     4028     TIP3     H2       HT       0.417000       1.00800           0
     29420 TIP3     4029     TIP3     OH2      OT      -0.834000       15.9994           0
     29421 TIP3     4029     TIP3     H1       HT       0.417000       1.00800           0
     29422 TIP3     4029     TIP3     H2       HT       0.417000       1.00800           0
     29423 TIP3     4030     TIP3     OH2      OT      -0.834000       15.9994           0
     29424 TIP3     4030     TIP3     H1       HT       0.417000       1.00800           0
     29425 TIP3     4030     TIP3     H2       HT       0.417000       1.00800           0
     29426 TIP3     4031     TIP3     OH2      OT      -0.834000       15.9994           0
     29427 TIP3     4031     TIP3     H1       HT       0.417000       1.00800           0
     29428 TIP3     4031     TIP3     H2       HT       0.417000       1.00800           0
     29429 TIP3     4032     TIP3     OH2      OT      -0.834000       15.9994           0
     29430 TIP3     4032     TIP3     H1       HT       0.417000       1.00800           0
     29431 TIP3     4032     TIP3     H2       HT       0.417000       1.00800           0
     29432 TIP3     4033     TIP3     OH2      OT      -0.834000       15.9994           0
     29433 TIP3     4033     TIP3     H1       HT       0.417000       1.00800           0
     29434 TIP3     4033     TIP3     H2       HT       0.417000       1.00800           0
     29435 TIP3     4034     TIP3     OH2      OT      -0.834000       15.9994           0
     29436 TIP3     4034     TIP3     H1       HT       0.417000       1.00800           0
     29437 TIP3     4034     TIP3     H2       HT       0.417000       1.00800           0
     29438 TIP3     4035     TIP3     OH2      OT      -0.834000       15.9994           0
     29439 TIP3     4035     TIP3     H1       HT       0.417000       1.00800           0
     29440 TIP3     4035     TIP3     H2       HT       0.417000       1.00800           0
     29441 TIP3     4036     TIP3     OH2      OT      -0.834000       15.9994           0
     29442 TIP3     4036     TIP3     H1       HT       0.417000       1.00800           0
     29443 TIP3     4036     TIP3     H2       HT       0.417000       1.00800           0
     29444 TIP3     4037     TIP3     OH2      OT      -0.834000       15.9994           0
     29445 TIP3     4037     TIP3     H1       HT       0.417000       1.00800           0
     29446 TIP3     4037     TIP3     H2       HT       0.417000       1.00800           0
     29447 TIP3     4038     TIP3     OH2      OT      -0.834000       15.9994           0
     29448 TIP3     4038     TIP3     H1       HT       0.417000       1.00800           0
     29449 TIP3     4038     TIP3     H2       HT       0.417000       1.00800           0
     29450 TIP3     4039     TIP3     OH2      OT      -0.834000       15.9994           0
     29451 TIP3     4039     TIP3     H1       HT       0.417000       1.00800           0
     29452 TIP3     4039     TIP3     H2       HT       0.417000       1.00800           0
     29453 TIP3     4040     TIP3     OH2      OT      -0.834000       15.9994           0
     29454 TIP3     4040     TIP3     H1       HT       0.417000       1.00800           0
     29455 TIP3     4040     TIP3     H2       HT       0.417000       1.00800           0
     29456 TIP3     4041     TIP3     OH2      OT      -0.834000       15.9994           0
     29457 TIP3     4041     TIP3     H1       HT       0.417000       1.00800           0
     29458 TIP3     4041     TIP3     H2       HT       0.417000       1.00800           0
     29459 TIP3     4042     TIP3     OH2      OT      -0.834000       15.9994           0
     29460 TIP3     4042     TIP3     H1       HT       0.417000       1.00800           0
     29461 TIP3     4042     TIP3     H2       HT       0.417000       1.00800           0
     29462 TIP3     4043     TIP3     OH2      OT      -0.834000       15.9994           0
     29463 TIP3     4043     TIP3     H1       HT       0.417000       1.00800           0
     29464 TIP3     4043     TIP3     H2       HT       0.417000       1.00800           0
     29465 TIP3     4044     TIP3     OH2      OT      -0.834000       15.9994           0
     29466 TIP3     4044     TIP3     H1       HT       0.417000       1.00800           0
     29467 TIP3     4044     TIP3     H2       HT       0.417000       1.00800           0
     29468 TIP3     4045     TIP3     OH2      OT      -0.834000       15.9994           0
     29469 TIP3     4045     TIP3     H1       HT       0.417000       1.00800           0
     29470 TIP3     4045     TIP3     H2       HT       0.417000       1.00800           0
     29471 TIP3     4046     TIP3     OH2      OT      -0.834000       15.9994           0
     29472 TIP3     4046     TIP3     H1       HT       0.417000       1.00800           0
     29473 TIP3     4046     TIP3     H2       HT       0.417000       1.00800           0
     29474 TIP3     4047     TIP3     OH2      OT      -0.834000       15.9994           0
     29475 TIP3     4047     TIP3     H1       HT       0.417000       1.00800           0
     29476 TIP3     4047     TIP3     H2       HT       0.417000       1.00800           0
     29477 TIP3     4048     TIP3     OH2      OT      -0.834000       15.9994           0
     29478 TIP3     4048     TIP3     H1       HT       0.417000       1.00800           0
     29479 TIP3     4048     TIP3     H2       HT       0.417000       1.00800           0
     29480 TIP3     4049     TIP3     OH2      OT      -0.834000       15.9994           0
     29481 TIP3     4049     TIP3     H1       HT       0.417000       1.00800           0
     29482 TIP3     4049     TIP3     H2       HT       0.417000       1.00800           0
     29483 TIP3     4050     TIP3     OH2      OT      -0.834000       15.9994           0
     29484 TIP3     4050     TIP3     H1       HT       0.417000       1.00800           0
     29485 TIP3     4050     TIP3     H2       HT       0.417000       1.00800           0
     29486 TIP3     4051     TIP3     OH2      OT      -0.834000       15.9994           0
     29487 TIP3     4051     TIP3     H1       HT       0.417000       1.00800           0
     29488 TIP3     4051     TIP3     H2       HT       0.417000       1.00800           0
     29489 TIP3     4052     TIP3     OH2      OT      -0.834000       15.9994           0
     29490 TIP3     4052     TIP3     H1       HT       0.417000       1.00800           0
     29491 TIP3     4052     TIP3     H2       HT       0.417000       1.00800           0
     29492 TIP3     4053     TIP3     OH2      OT      -0.834000       15.9994           0
     29493 TIP3     4053     TIP3     H1       HT       0.417000       1.00800           0
     29494 TIP3     4053     TIP3     H2       HT       0.417000       1.00800           0
     29495 TIP3     4054     TIP3     OH2      OT      -0.834000       15.9994           0
     29496 TIP3     4054     TIP3     H1       HT       0.417000       1.00800           0
     29497 TIP3     4054     TIP3     H2       HT       0.417000       1.00800           0
     29498 TIP3     4055     TIP3     OH2      OT      -0.834000       15.9994           0
     29499 TIP3     4055     TIP3     H1       HT       0.417000       1.00800           0
     29500 TIP3     4055     TIP3     H2       HT       0.417000       1.00800           0
     29501 TIP3     4056     TIP3     OH2      OT      -0.834000       15.9994           0
     29502 TIP3     4056     TIP3     H1       HT       0.417000       1.00800           0
     29503 TIP3     4056     TIP3     H2       HT       0.417000       1.00800           0
     29504 TIP3     4057     TIP3     OH2      OT      -0.834000       15.9994           0
     29505 TIP3     4057     TIP3     H1       HT       0.417000       1.00800           0
     29506 TIP3     4057     TIP3     H2       HT       0.417000       1.00800           0
     29507 TIP3     4058     TIP3     OH2      OT      -0.834000       15.9994           0
     29508 TIP3     4058     TIP3     H1       HT       0.417000       1.00800           0
     29509 TIP3     4058     TIP3     H2       HT       0.417000       1.00800           0
     29510 TIP3     4059     TIP3     OH2      OT      -0.834000       15.9994           0
     29511 TIP3     4059     TIP3     H1       HT       0.417000       1.00800           0
     29512 TIP3     4059     TIP3     H2       HT       0.417000       1.00800           0
     29513 TIP3     4060     TIP3     OH2      OT      -0.834000       15.9994           0
     29514 TIP3     4060     TIP3     H1       HT       0.417000       1.00800           0
     29515 TIP3     4060     TIP3     H2       HT       0.417000       1.00800           0
     29516 TIP3     4061     TIP3     OH2      OT      -0.834000       15.9994           0
     29517 TIP3     4061     TIP3     H1       HT       0.417000       1.00800           0
     29518 TIP3     4061     TIP3     H2       HT       0.417000       1.00800           0
     29519 TIP3     4062     TIP3     OH2      OT      -0.834000       15.9994           0
     29520 TIP3     4062     TIP3     H1       HT       0.417000       1.00800           0
     29521 TIP3     4062     TIP3     H2       HT       0.417000       1.00800           0
     29522 TIP3     4063     TIP3     OH2      OT      -0.834000       15.9994           0
     29523 TIP3     4063     TIP3     H1       HT       0.417000       1.00800           0
     29524 TIP3     4063     TIP3     H2       HT       0.417000       1.00800           0
     29525 TIP3     4064     TIP3     OH2      OT      -0.834000       15.9994           0
     29526 TIP3     4064     TIP3     H1       HT       0.417000       1.00800           0
     29527 TIP3     4064     TIP3     H2       HT       0.417000       1.00800           0
     29528 TIP3     4065     TIP3     OH2      OT      -0.834000       15.9994           0
     29529 TIP3     4065     TIP3     H1       HT       0.417000       1.00800           0
     29530 TIP3     4065     TIP3     H2       HT       0.417000       1.00800           0
     29531 TIP3     4066     TIP3     OH2      OT      -0.834000       15.9994           0
     29532 TIP3     4066     TIP3     H1       HT       0.417000       1.00800           0
     29533 TIP3     4066     TIP3     H2       HT       0.417000       1.00800           0
     29534 TIP3     4067     TIP3     OH2      OT      -0.834000       15.9994           0
     29535 TIP3     4067     TIP3     H1       HT       0.417000       1.00800           0
     29536 TIP3     4067     TIP3     H2       HT       0.417000       1.00800           0
     29537 TIP3     4068     TIP3     OH2      OT      -0.834000       15.9994           0
     29538 TIP3     4068     TIP3     H1       HT       0.417000       1.00800           0
     29539 TIP3     4068     TIP3     H2       HT       0.417000       1.00800           0
     29540 TIP3     4069     TIP3     OH2      OT      -0.834000       15.9994           0
     29541 TIP3     4069     TIP3     H1       HT       0.417000       1.00800           0
     29542 TIP3     4069     TIP3     H2       HT       0.417000       1.00800           0
     29543 TIP3     4070     TIP3     OH2      OT      -0.834000       15.9994           0
     29544 TIP3     4070     TIP3     H1       HT       0.417000       1.00800           0
     29545 TIP3     4070     TIP3     H2       HT       0.417000       1.00800           0
     29546 TIP3     4071     TIP3     OH2      OT      -0.834000       15.9994           0
     29547 TIP3     4071     TIP3     H1       HT       0.417000       1.00800           0
     29548 TIP3     4071     TIP3     H2       HT       0.417000       1.00800           0
     29549 TIP3     4072     TIP3     OH2      OT      -0.834000       15.9994           0
     29550 TIP3     4072     TIP3     H1       HT       0.417000       1.00800           0
     29551 TIP3     4072     TIP3     H2       HT       0.417000       1.00800           0
     29552 TIP3     4073     TIP3     OH2      OT      -0.834000       15.9994           0
     29553 TIP3     4073     TIP3     H1       HT       0.417000       1.00800           0
     29554 TIP3     4073     TIP3     H2       HT       0.417000       1.00800           0
     29555 TIP3     4074     TIP3     OH2      OT      -0.834000       15.9994           0
     29556 TIP3     4074     TIP3     H1       HT       0.417000       1.00800           0
     29557 TIP3     4074     TIP3     H2       HT       0.417000       1.00800           0
     29558 TIP3     4075     TIP3     OH2      OT      -0.834000       15.9994           0
     29559 TIP3     4075     TIP3     H1       HT       0.417000       1.00800           0
     29560 TIP3     4075     TIP3     H2       HT       0.417000       1.00800           0
     29561 TIP3     4076     TIP3     OH2      OT      -0.834000       15.9994           0
     29562 TIP3     4076     TIP3     H1       HT       0.417000       1.00800           0
     29563 TIP3     4076     TIP3     H2       HT       0.417000       1.00800           0
     29564 TIP3     4077     TIP3     OH2      OT      -0.834000       15.9994           0
     29565 TIP3     4077     TIP3     H1       HT       0.417000       1.00800           0
     29566 TIP3     4077     TIP3     H2       HT       0.417000       1.00800           0
     29567 TIP3     4078     TIP3     OH2      OT      -0.834000       15.9994           0
     29568 TIP3     4078     TIP3     H1       HT       0.417000       1.00800           0
     29569 TIP3     4078     TIP3     H2       HT       0.417000       1.00800           0
     29570 TIP3     4079     TIP3     OH2      OT      -0.834000       15.9994           0
     29571 TIP3     4079     TIP3     H1       HT       0.417000       1.00800           0
     29572 TIP3     4079     TIP3     H2       HT       0.417000       1.00800           0
     29573 TIP3     4080     TIP3     OH2      OT      -0.834000       15.9994           0
     29574 TIP3     4080     TIP3     H1       HT       0.417000       1.00800           0
     29575 TIP3     4080     TIP3     H2       HT       0.417000       1.00800           0
     29576 TIP3     4081     TIP3     OH2      OT      -0.834000       15.9994           0
     29577 TIP3     4081     TIP3     H1       HT       0.417000       1.00800           0
     29578 TIP3     4081     TIP3     H2       HT       0.417000       1.00800           0
     29579 TIP3     4082     TIP3     OH2      OT      -0.834000       15.9994           0
     29580 TIP3     4082     TIP3     H1       HT       0.417000       1.00800           0
     29581 TIP3     4082     TIP3     H2       HT       0.417000       1.00800           0
     29582 TIP3     4083     TIP3     OH2      OT      -0.834000       15.9994           0
     29583 TIP3     4083     TIP3     H1       HT       0.417000       1.00800           0
     29584 TIP3     4083     TIP3     H2       HT       0.417000       1.00800           0
     29585 TIP3     4084     TIP3     OH2      OT      -0.834000       15.9994           0
     29586 TIP3     4084     TIP3     H1       HT       0.417000       1.00800           0
     29587 TIP3     4084     TIP3     H2       HT       0.417000       1.00800           0
     29588 TIP3     4085     TIP3     OH2      OT      -0.834000       15.9994           0
     29589 TIP3     4085     TIP3     H1       HT       0.417000       1.00800           0
     29590 TIP3     4085     TIP3     H2       HT       0.417000       1.00800           0
     29591 TIP3     4086     TIP3     OH2      OT      -0.834000       15.9994           0
     29592 TIP3     4086     TIP3     H1       HT       0.417000       1.00800           0
     29593 TIP3     4086     TIP3     H2       HT       0.417000       1.00800           0
     29594 TIP3     4087     TIP3     OH2      OT      -0.834000       15.9994           0
     29595 TIP3     4087     TIP3     H1       HT       0.417000       1.00800           0
     29596 TIP3     4087     TIP3     H2       HT       0.417000       1.00800           0
     29597 TIP3     4088     TIP3     OH2      OT      -0.834000       15.9994           0
     29598 TIP3     4088     TIP3     H1       HT       0.417000       1.00800           0
     29599 TIP3     4088     TIP3     H2       HT       0.417000       1.00800           0
     29600 TIP3     4089     TIP3     OH2      OT      -0.834000       15.9994           0
     29601 TIP3     4089     TIP3     H1       HT       0.417000       1.00800           0
     29602 TIP3     4089     TIP3     H2       HT       0.417000       1.00800           0
     29603 TIP3     4090     TIP3     OH2      OT      -0.834000       15.9994           0
     29604 TIP3     4090     TIP3     H1       HT       0.417000       1.00800           0
     29605 TIP3     4090     TIP3     H2       HT       0.417000       1.00800           0
     29606 TIP3     4091     TIP3     OH2      OT      -0.834000       15.9994           0
     29607 TIP3     4091     TIP3     H1       HT       0.417000       1.00800           0
     29608 TIP3     4091     TIP3     H2       HT       0.417000       1.00800           0
     29609 TIP3     4092     TIP3     OH2      OT      -0.834000       15.9994           0
     29610 TIP3     4092     TIP3     H1       HT       0.417000       1.00800           0
     29611 TIP3     4092     TIP3     H2       HT       0.417000       1.00800           0
     29612 TIP3     4093     TIP3     OH2      OT      -0.834000       15.9994           0
     29613 TIP3     4093     TIP3     H1       HT       0.417000       1.00800           0
     29614 TIP3     4093     TIP3     H2       HT       0.417000       1.00800           0
     29615 TIP3     4094     TIP3     OH2      OT      -0.834000       15.9994           0
     29616 TIP3     4094     TIP3     H1       HT       0.417000       1.00800           0
     29617 TIP3     4094     TIP3     H2       HT       0.417000       1.00800           0
     29618 TIP3     4095     TIP3     OH2      OT      -0.834000       15.9994           0
     29619 TIP3     4095     TIP3     H1       HT       0.417000       1.00800           0
     29620 TIP3     4095     TIP3     H2       HT       0.417000       1.00800           0
     29621 TIP3     4096     TIP3     OH2      OT      -0.834000       15.9994           0
     29622 TIP3     4096     TIP3     H1       HT       0.417000       1.00800           0
     29623 TIP3     4096     TIP3     H2       HT       0.417000       1.00800           0
     29624 TIP3     4097     TIP3     OH2      OT      -0.834000       15.9994           0
     29625 TIP3     4097     TIP3     H1       HT       0.417000       1.00800           0
     29626 TIP3     4097     TIP3     H2       HT       0.417000       1.00800           0
     29627 TIP3     4098     TIP3     OH2      OT      -0.834000       15.9994           0
     29628 TIP3     4098     TIP3     H1       HT       0.417000       1.00800           0
     29629 TIP3     4098     TIP3     H2       HT       0.417000       1.00800           0
     29630 TIP3     4099     TIP3     OH2      OT      -0.834000       15.9994           0
     29631 TIP3     4099     TIP3     H1       HT       0.417000       1.00800           0
     29632 TIP3     4099     TIP3     H2       HT       0.417000       1.00800           0
     29633 TIP3     4100     TIP3     OH2      OT      -0.834000       15.9994           0
     29634 TIP3     4100     TIP3     H1       HT       0.417000       1.00800           0
     29635 TIP3     4100     TIP3     H2       HT       0.417000       1.00800           0
     29636 TIP3     4101     TIP3     OH2      OT      -0.834000       15.9994           0
     29637 TIP3     4101     TIP3     H1       HT       0.417000       1.00800           0
     29638 TIP3     4101     TIP3     H2       HT       0.417000       1.00800           0
     29639 TIP3     4102     TIP3     OH2      OT      -0.834000       15.9994           0
     29640 TIP3     4102     TIP3     H1       HT       0.417000       1.00800           0
     29641 TIP3     4102     TIP3     H2       HT       0.417000       1.00800           0
     29642 TIP3     4103     TIP3     OH2      OT      -0.834000       15.9994           0
     29643 TIP3     4103     TIP3     H1       HT       0.417000       1.00800           0
     29644 TIP3     4103     TIP3     H2       HT       0.417000       1.00800           0
     29645 TIP3     4104     TIP3     OH2      OT      -0.834000       15.9994           0
     29646 TIP3     4104     TIP3     H1       HT       0.417000       1.00800           0
     29647 TIP3     4104     TIP3     H2       HT       0.417000       1.00800           0
     29648 TIP3     4105     TIP3     OH2      OT      -0.834000       15.9994           0
     29649 TIP3     4105     TIP3     H1       HT       0.417000       1.00800           0
     29650 TIP3     4105     TIP3     H2       HT       0.417000       1.00800           0
     29651 TIP3     4106     TIP3     OH2      OT      -0.834000       15.9994           0
     29652 TIP3     4106     TIP3     H1       HT       0.417000       1.00800           0
     29653 TIP3     4106     TIP3     H2       HT       0.417000       1.00800           0
     29654 TIP3     4107     TIP3     OH2      OT      -0.834000       15.9994           0
     29655 TIP3     4107     TIP3     H1       HT       0.417000       1.00800           0
     29656 TIP3     4107     TIP3     H2       HT       0.417000       1.00800           0
     29657 TIP3     4108     TIP3     OH2      OT      -0.834000       15.9994           0
     29658 TIP3     4108     TIP3     H1       HT       0.417000       1.00800           0
     29659 TIP3     4108     TIP3     H2       HT       0.417000       1.00800           0
     29660 TIP3     4109     TIP3     OH2      OT      -0.834000       15.9994           0
     29661 TIP3     4109     TIP3     H1       HT       0.417000       1.00800           0
     29662 TIP3     4109     TIP3     H2       HT       0.417000       1.00800           0
     29663 TIP3     4110     TIP3     OH2      OT      -0.834000       15.9994           0
     29664 TIP3     4110     TIP3     H1       HT       0.417000       1.00800           0
     29665 TIP3     4110     TIP3     H2       HT       0.417000       1.00800           0
     29666 TIP3     4111     TIP3     OH2      OT      -0.834000       15.9994           0
     29667 TIP3     4111     TIP3     H1       HT       0.417000       1.00800           0
     29668 TIP3     4111     TIP3     H2       HT       0.417000       1.00800           0
     29669 TIP3     4112     TIP3     OH2      OT      -0.834000       15.9994           0
     29670 TIP3     4112     TIP3     H1       HT       0.417000       1.00800           0
     29671 TIP3     4112     TIP3     H2       HT       0.417000       1.00800           0
     29672 TIP3     4113     TIP3     OH2      OT      -0.834000       15.9994           0
     29673 TIP3     4113     TIP3     H1       HT       0.417000       1.00800           0
     29674 TIP3     4113     TIP3     H2       HT       0.417000       1.00800           0
     29675 TIP3     4114     TIP3     OH2      OT      -0.834000       15.9994           0
     29676 TIP3     4114     TIP3     H1       HT       0.417000       1.00800           0
     29677 TIP3     4114     TIP3     H2       HT       0.417000       1.00800           0
     29678 TIP3     4115     TIP3     OH2      OT      -0.834000       15.9994           0
     29679 TIP3     4115     TIP3     H1       HT       0.417000       1.00800           0
     29680 TIP3     4115     TIP3     H2       HT       0.417000       1.00800           0
     29681 TIP3     4116     TIP3     OH2      OT      -0.834000       15.9994           0
     29682 TIP3     4116     TIP3     H1       HT       0.417000       1.00800           0
     29683 TIP3     4116     TIP3     H2       HT       0.417000       1.00800           0
     29684 TIP3     4117     TIP3     OH2      OT      -0.834000       15.9994           0
     29685 TIP3     4117     TIP3     H1       HT       0.417000       1.00800           0
     29686 TIP3     4117     TIP3     H2       HT       0.417000       1.00800           0
     29687 TIP3     4118     TIP3     OH2      OT      -0.834000       15.9994           0
     29688 TIP3     4118     TIP3     H1       HT       0.417000       1.00800           0
     29689 TIP3     4118     TIP3     H2       HT       0.417000       1.00800           0
     29690 TIP3     4119     TIP3     OH2      OT      -0.834000       15.9994           0
     29691 TIP3     4119     TIP3     H1       HT       0.417000       1.00800           0
     29692 TIP3     4119     TIP3     H2       HT       0.417000       1.00800           0
     29693 TIP3     4120     TIP3     OH2      OT      -0.834000       15.9994           0
     29694 TIP3     4120     TIP3     H1       HT       0.417000       1.00800           0
     29695 TIP3     4120     TIP3     H2       HT       0.417000       1.00800           0
     29696 TIP3     4121     TIP3     OH2      OT      -0.834000       15.9994           0
     29697 TIP3     4121     TIP3     H1       HT       0.417000       1.00800           0
     29698 TIP3     4121     TIP3     H2       HT       0.417000       1.00800           0
     29699 TIP3     4122     TIP3     OH2      OT      -0.834000       15.9994           0
     29700 TIP3     4122     TIP3     H1       HT       0.417000       1.00800           0
     29701 TIP3     4122     TIP3     H2       HT       0.417000       1.00800           0
     29702 TIP3     4123     TIP3     OH2      OT      -0.834000       15.9994           0
     29703 TIP3     4123     TIP3     H1       HT       0.417000       1.00800           0
     29704 TIP3     4123     TIP3     H2       HT       0.417000       1.00800           0
     29705 TIP3     4124     TIP3     OH2      OT      -0.834000       15.9994           0
     29706 TIP3     4124     TIP3     H1       HT       0.417000       1.00800           0
     29707 TIP3     4124     TIP3     H2       HT       0.417000       1.00800           0
     29708 TIP3     4125     TIP3     OH2      OT      -0.834000       15.9994           0
     29709 TIP3     4125     TIP3     H1       HT       0.417000       1.00800           0
     29710 TIP3     4125     TIP3     H2       HT       0.417000       1.00800           0
     29711 TIP3     4126     TIP3     OH2      OT      -0.834000       15.9994           0
     29712 TIP3     4126     TIP3     H1       HT       0.417000       1.00800           0
     29713 TIP3     4126     TIP3     H2       HT       0.417000       1.00800           0
     29714 TIP3     4127     TIP3     OH2      OT      -0.834000       15.9994           0
     29715 TIP3     4127     TIP3     H1       HT       0.417000       1.00800           0
     29716 TIP3     4127     TIP3     H2       HT       0.417000       1.00800           0
     29717 TIP3     4128     TIP3     OH2      OT      -0.834000       15.9994           0
     29718 TIP3     4128     TIP3     H1       HT       0.417000       1.00800           0
     29719 TIP3     4128     TIP3     H2       HT       0.417000       1.00800           0
     29720 TIP3     4129     TIP3     OH2      OT      -0.834000       15.9994           0
     29721 TIP3     4129     TIP3     H1       HT       0.417000       1.00800           0
     29722 TIP3     4129     TIP3     H2       HT       0.417000       1.00800           0
     29723 TIP3     4130     TIP3     OH2      OT      -0.834000       15.9994           0
     29724 TIP3     4130     TIP3     H1       HT       0.417000       1.00800           0
     29725 TIP3     4130     TIP3     H2       HT       0.417000       1.00800           0
     29726 TIP3     4131     TIP3     OH2      OT      -0.834000       15.9994           0
     29727 TIP3     4131     TIP3     H1       HT       0.417000       1.00800           0
     29728 TIP3     4131     TIP3     H2       HT       0.417000       1.00800           0
     29729 TIP3     4132     TIP3     OH2      OT      -0.834000       15.9994           0
     29730 TIP3     4132     TIP3     H1       HT       0.417000       1.00800           0
     29731 TIP3     4132     TIP3     H2       HT       0.417000       1.00800           0
     29732 TIP3     4133     TIP3     OH2      OT      -0.834000       15.9994           0
     29733 TIP3     4133     TIP3     H1       HT       0.417000       1.00800           0
     29734 TIP3     4133     TIP3     H2       HT       0.417000       1.00800           0
     29735 TIP3     4134     TIP3     OH2      OT      -0.834000       15.9994           0
     29736 TIP3     4134     TIP3     H1       HT       0.417000       1.00800           0
     29737 TIP3     4134     TIP3     H2       HT       0.417000       1.00800           0
     29738 TIP3     4135     TIP3     OH2      OT      -0.834000       15.9994           0
     29739 TIP3     4135     TIP3     H1       HT       0.417000       1.00800           0
     29740 TIP3     4135     TIP3     H2       HT       0.417000       1.00800           0
     29741 TIP3     4136     TIP3     OH2      OT      -0.834000       15.9994           0
     29742 TIP3     4136     TIP3     H1       HT       0.417000       1.00800           0
     29743 TIP3     4136     TIP3     H2       HT       0.417000       1.00800           0
     29744 TIP3     4137     TIP3     OH2      OT      -0.834000       15.9994           0
     29745 TIP3     4137     TIP3     H1       HT       0.417000       1.00800           0
     29746 TIP3     4137     TIP3     H2       HT       0.417000       1.00800           0
     29747 TIP3     4138     TIP3     OH2      OT      -0.834000       15.9994           0
     29748 TIP3     4138     TIP3     H1       HT       0.417000       1.00800           0
     29749 TIP3     4138     TIP3     H2       HT       0.417000       1.00800           0
     29750 TIP3     4139     TIP3     OH2      OT      -0.834000       15.9994           0
     29751 TIP3     4139     TIP3     H1       HT       0.417000       1.00800           0
     29752 TIP3     4139     TIP3     H2       HT       0.417000       1.00800           0
     29753 TIP3     4140     TIP3     OH2      OT      -0.834000       15.9994           0
     29754 TIP3     4140     TIP3     H1       HT       0.417000       1.00800           0
     29755 TIP3     4140     TIP3     H2       HT       0.417000       1.00800           0
     29756 TIP3     4141     TIP3     OH2      OT      -0.834000       15.9994           0
     29757 TIP3     4141     TIP3     H1       HT       0.417000       1.00800           0
     29758 TIP3     4141     TIP3     H2       HT       0.417000       1.00800           0
     29759 TIP3     4142     TIP3     OH2      OT      -0.834000       15.9994           0
     29760 TIP3     4142     TIP3     H1       HT       0.417000       1.00800           0
     29761 TIP3     4142     TIP3     H2       HT       0.417000       1.00800           0
     29762 TIP3     4143     TIP3     OH2      OT      -0.834000       15.9994           0
     29763 TIP3     4143     TIP3     H1       HT       0.417000       1.00800           0
     29764 TIP3     4143     TIP3     H2       HT       0.417000       1.00800           0
     29765 TIP3     4144     TIP3     OH2      OT      -0.834000       15.9994           0
     29766 TIP3     4144     TIP3     H1       HT       0.417000       1.00800           0
     29767 TIP3     4144     TIP3     H2       HT       0.417000       1.00800           0
     29768 TIP3     4145     TIP3     OH2      OT      -0.834000       15.9994           0
     29769 TIP3     4145     TIP3     H1       HT       0.417000       1.00800           0
     29770 TIP3     4145     TIP3     H2       HT       0.417000       1.00800           0
     29771 TIP3     4146     TIP3     OH2      OT      -0.834000       15.9994           0
     29772 TIP3     4146     TIP3     H1       HT       0.417000       1.00800           0
     29773 TIP3     4146     TIP3     H2       HT       0.417000       1.00800           0
     29774 TIP3     4147     TIP3     OH2      OT      -0.834000       15.9994           0
     29775 TIP3     4147     TIP3     H1       HT       0.417000       1.00800           0
     29776 TIP3     4147     TIP3     H2       HT       0.417000       1.00800           0
     29777 TIP3     4148     TIP3     OH2      OT      -0.834000       15.9994           0
     29778 TIP3     4148     TIP3     H1       HT       0.417000       1.00800           0
     29779 TIP3     4148     TIP3     H2       HT       0.417000       1.00800           0
     29780 TIP3     4149     TIP3     OH2      OT      -0.834000       15.9994           0
     29781 TIP3     4149     TIP3     H1       HT       0.417000       1.00800           0
     29782 TIP3     4149     TIP3     H2       HT       0.417000       1.00800           0
     29783 TIP3     4150     TIP3     OH2      OT      -0.834000       15.9994           0
     29784 TIP3     4150     TIP3     H1       HT       0.417000       1.00800           0
     29785 TIP3     4150     TIP3     H2       HT       0.417000       1.00800           0
     29786 TIP3     4151     TIP3     OH2      OT      -0.834000       15.9994           0
     29787 TIP3     4151     TIP3     H1       HT       0.417000       1.00800           0
     29788 TIP3     4151     TIP3     H2       HT       0.417000       1.00800           0
     29789 TIP3     4152     TIP3     OH2      OT      -0.834000       15.9994           0
     29790 TIP3     4152     TIP3     H1       HT       0.417000       1.00800           0
     29791 TIP3     4152     TIP3     H2       HT       0.417000       1.00800           0
     29792 TIP3     4153     TIP3     OH2      OT      -0.834000       15.9994           0
     29793 TIP3     4153     TIP3     H1       HT       0.417000       1.00800           0
     29794 TIP3     4153     TIP3     H2       HT       0.417000       1.00800           0
     29795 TIP3     4154     TIP3     OH2      OT      -0.834000       15.9994           0
     29796 TIP3     4154     TIP3     H1       HT       0.417000       1.00800           0
     29797 TIP3     4154     TIP3     H2       HT       0.417000       1.00800           0
     29798 TIP3     4155     TIP3     OH2      OT      -0.834000       15.9994           0
     29799 TIP3     4155     TIP3     H1       HT       0.417000       1.00800           0
     29800 TIP3     4155     TIP3     H2       HT       0.417000       1.00800           0
     29801 TIP3     4156     TIP3     OH2      OT      -0.834000       15.9994           0
     29802 TIP3     4156     TIP3     H1       HT       0.417000       1.00800           0
     29803 TIP3     4156     TIP3     H2       HT       0.417000       1.00800           0
     29804 TIP3     4157     TIP3     OH2      OT      -0.834000       15.9994           0
     29805 TIP3     4157     TIP3     H1       HT       0.417000       1.00800           0
     29806 TIP3     4157     TIP3     H2       HT       0.417000       1.00800           0
     29807 TIP3     4158     TIP3     OH2      OT      -0.834000       15.9994           0
     29808 TIP3     4158     TIP3     H1       HT       0.417000       1.00800           0
     29809 TIP3     4158     TIP3     H2       HT       0.417000       1.00800           0
     29810 TIP3     4159     TIP3     OH2      OT      -0.834000       15.9994           0
     29811 TIP3     4159     TIP3     H1       HT       0.417000       1.00800           0
     29812 TIP3     4159     TIP3     H2       HT       0.417000       1.00800           0
     29813 TIP3     4160     TIP3     OH2      OT      -0.834000       15.9994           0
     29814 TIP3     4160     TIP3     H1       HT       0.417000       1.00800           0
     29815 TIP3     4160     TIP3     H2       HT       0.417000       1.00800           0
     29816 TIP3     4161     TIP3     OH2      OT      -0.834000       15.9994           0
     29817 TIP3     4161     TIP3     H1       HT       0.417000       1.00800           0
     29818 TIP3     4161     TIP3     H2       HT       0.417000       1.00800           0
     29819 TIP3     4162     TIP3     OH2      OT      -0.834000       15.9994           0
     29820 TIP3     4162     TIP3     H1       HT       0.417000       1.00800           0
     29821 TIP3     4162     TIP3     H2       HT       0.417000       1.00800           0
     29822 TIP3     4163     TIP3     OH2      OT      -0.834000       15.9994           0
     29823 TIP3     4163     TIP3     H1       HT       0.417000       1.00800           0
     29824 TIP3     4163     TIP3     H2       HT       0.417000       1.00800           0
     29825 TIP3     4164     TIP3     OH2      OT      -0.834000       15.9994           0
     29826 TIP3     4164     TIP3     H1       HT       0.417000       1.00800           0
     29827 TIP3     4164     TIP3     H2       HT       0.417000       1.00800           0
     29828 TIP3     4165     TIP3     OH2      OT      -0.834000       15.9994           0
     29829 TIP3     4165     TIP3     H1       HT       0.417000       1.00800           0
     29830 TIP3     4165     TIP3     H2       HT       0.417000       1.00800           0
     29831 TIP3     4166     TIP3     OH2      OT      -0.834000       15.9994           0
     29832 TIP3     4166     TIP3     H1       HT       0.417000       1.00800           0
     29833 TIP3     4166     TIP3     H2       HT       0.417000       1.00800           0
     29834 TIP3     4167     TIP3     OH2      OT      -0.834000       15.9994           0
     29835 TIP3     4167     TIP3     H1       HT       0.417000       1.00800           0
     29836 TIP3     4167     TIP3     H2       HT       0.417000       1.00800           0
     29837 TIP3     4168     TIP3     OH2      OT      -0.834000       15.9994           0
     29838 TIP3     4168     TIP3     H1       HT       0.417000       1.00800           0
     29839 TIP3     4168     TIP3     H2       HT       0.417000       1.00800           0
     29840 TIP3     4169     TIP3     OH2      OT      -0.834000       15.9994           0
     29841 TIP3     4169     TIP3     H1       HT       0.417000       1.00800           0
     29842 TIP3     4169     TIP3     H2       HT       0.417000       1.00800           0
     29843 TIP3     4170     TIP3     OH2      OT      -0.834000       15.9994           0
     29844 TIP3     4170     TIP3     H1       HT       0.417000       1.00800           0
     29845 TIP3     4170     TIP3     H2       HT       0.417000       1.00800           0
     29846 TIP3     4171     TIP3     OH2      OT      -0.834000       15.9994           0
     29847 TIP3     4171     TIP3     H1       HT       0.417000       1.00800           0
     29848 TIP3     4171     TIP3     H2       HT       0.417000       1.00800           0
     29849 TIP3     4172     TIP3     OH2      OT      -0.834000       15.9994           0
     29850 TIP3     4172     TIP3     H1       HT       0.417000       1.00800           0
     29851 TIP3     4172     TIP3     H2       HT       0.417000       1.00800           0
     29852 TIP3     4173     TIP3     OH2      OT      -0.834000       15.9994           0
     29853 TIP3     4173     TIP3     H1       HT       0.417000       1.00800           0
     29854 TIP3     4173     TIP3     H2       HT       0.417000       1.00800           0
     29855 TIP3     4174     TIP3     OH2      OT      -0.834000       15.9994           0
     29856 TIP3     4174     TIP3     H1       HT       0.417000       1.00800           0
     29857 TIP3     4174     TIP3     H2       HT       0.417000       1.00800           0
     29858 TIP3     4175     TIP3     OH2      OT      -0.834000       15.9994           0
     29859 TIP3     4175     TIP3     H1       HT       0.417000       1.00800           0
     29860 TIP3     4175     TIP3     H2       HT       0.417000       1.00800           0
     29861 TIP3     4176     TIP3     OH2      OT      -0.834000       15.9994           0
     29862 TIP3     4176     TIP3     H1       HT       0.417000       1.00800           0
     29863 TIP3     4176     TIP3     H2       HT       0.417000       1.00800           0
     29864 TIP3     4177     TIP3     OH2      OT      -0.834000       15.9994           0
     29865 TIP3     4177     TIP3     H1       HT       0.417000       1.00800           0
     29866 TIP3     4177     TIP3     H2       HT       0.417000       1.00800           0
     29867 TIP3     4178     TIP3     OH2      OT      -0.834000       15.9994           0
     29868 TIP3     4178     TIP3     H1       HT       0.417000       1.00800           0
     29869 TIP3     4178     TIP3     H2       HT       0.417000       1.00800           0
     29870 TIP3     4179     TIP3     OH2      OT      -0.834000       15.9994           0
     29871 TIP3     4179     TIP3     H1       HT       0.417000       1.00800           0
     29872 TIP3     4179     TIP3     H2       HT       0.417000       1.00800           0
     29873 TIP3     4180     TIP3     OH2      OT      -0.834000       15.9994           0
     29874 TIP3     4180     TIP3     H1       HT       0.417000       1.00800           0
     29875 TIP3     4180     TIP3     H2       HT       0.417000       1.00800           0
     29876 TIP3     4181     TIP3     OH2      OT      -0.834000       15.9994           0
     29877 TIP3     4181     TIP3     H1       HT       0.417000       1.00800           0
     29878 TIP3     4181     TIP3     H2       HT       0.417000       1.00800           0
     29879 TIP3     4182     TIP3     OH2      OT      -0.834000       15.9994           0
     29880 TIP3     4182     TIP3     H1       HT       0.417000       1.00800           0
     29881 TIP3     4182     TIP3     H2       HT       0.417000       1.00800           0
     29882 TIP3     4183     TIP3     OH2      OT      -0.834000       15.9994           0
     29883 TIP3     4183     TIP3     H1       HT       0.417000       1.00800           0
     29884 TIP3     4183     TIP3     H2       HT       0.417000       1.00800           0
     29885 TIP3     4184     TIP3     OH2      OT      -0.834000       15.9994           0
     29886 TIP3     4184     TIP3     H1       HT       0.417000       1.00800           0
     29887 TIP3     4184     TIP3     H2       HT       0.417000       1.00800           0
     29888 TIP3     4185     TIP3     OH2      OT      -0.834000       15.9994           0
     29889 TIP3     4185     TIP3     H1       HT       0.417000       1.00800           0
     29890 TIP3     4185     TIP3     H2       HT       0.417000       1.00800           0
     29891 TIP3     4186     TIP3     OH2      OT      -0.834000       15.9994           0
     29892 TIP3     4186     TIP3     H1       HT       0.417000       1.00800           0
     29893 TIP3     4186     TIP3     H2       HT       0.417000       1.00800           0
     29894 TIP3     4187     TIP3     OH2      OT      -0.834000       15.9994           0
     29895 TIP3     4187     TIP3     H1       HT       0.417000       1.00800           0
     29896 TIP3     4187     TIP3     H2       HT       0.417000       1.00800           0
     29897 TIP3     4188     TIP3     OH2      OT      -0.834000       15.9994           0
     29898 TIP3     4188     TIP3     H1       HT       0.417000       1.00800           0
     29899 TIP3     4188     TIP3     H2       HT       0.417000       1.00800           0
     29900 TIP3     4189     TIP3     OH2      OT      -0.834000       15.9994           0
     29901 TIP3     4189     TIP3     H1       HT       0.417000       1.00800           0
     29902 TIP3     4189     TIP3     H2       HT       0.417000       1.00800           0
     29903 TIP3     4190     TIP3     OH2      OT      -0.834000       15.9994           0
     29904 TIP3     4190     TIP3     H1       HT       0.417000       1.00800           0
     29905 TIP3     4190     TIP3     H2       HT       0.417000       1.00800           0
     29906 TIP3     4191     TIP3     OH2      OT      -0.834000       15.9994           0
     29907 TIP3     4191     TIP3     H1       HT       0.417000       1.00800           0
     29908 TIP3     4191     TIP3     H2       HT       0.417000       1.00800           0
     29909 TIP3     4192     TIP3     OH2      OT      -0.834000       15.9994           0
     29910 TIP3     4192     TIP3     H1       HT       0.417000       1.00800           0
     29911 TIP3     4192     TIP3     H2       HT       0.417000       1.00800           0
     29912 TIP3     4193     TIP3     OH2      OT      -0.834000       15.9994           0
     29913 TIP3     4193     TIP3     H1       HT       0.417000       1.00800           0
     29914 TIP3     4193     TIP3     H2       HT       0.417000       1.00800           0
     29915 TIP3     4194     TIP3     OH2      OT      -0.834000       15.9994           0
     29916 TIP3     4194     TIP3     H1       HT       0.417000       1.00800           0
     29917 TIP3     4194     TIP3     H2       HT       0.417000       1.00800           0
     29918 TIP3     4195     TIP3     OH2      OT      -0.834000       15.9994           0
     29919 TIP3     4195     TIP3     H1       HT       0.417000       1.00800           0
     29920 TIP3     4195     TIP3     H2       HT       0.417000       1.00800           0
     29921 TIP3     4196     TIP3     OH2      OT      -0.834000       15.9994           0
     29922 TIP3     4196     TIP3     H1       HT       0.417000       1.00800           0
     29923 TIP3     4196     TIP3     H2       HT       0.417000       1.00800           0
     29924 TIP3     4197     TIP3     OH2      OT      -0.834000       15.9994           0
     29925 TIP3     4197     TIP3     H1       HT       0.417000       1.00800           0
     29926 TIP3     4197     TIP3     H2       HT       0.417000       1.00800           0
     29927 TIP3     4198     TIP3     OH2      OT      -0.834000       15.9994           0
     29928 TIP3     4198     TIP3     H1       HT       0.417000       1.00800           0
     29929 TIP3     4198     TIP3     H2       HT       0.417000       1.00800           0
     29930 TIP3     4199     TIP3     OH2      OT      -0.834000       15.9994           0
     29931 TIP3     4199     TIP3     H1       HT       0.417000       1.00800           0
     29932 TIP3     4199     TIP3     H2       HT       0.417000       1.00800           0
     29933 TIP3     4200     TIP3     OH2      OT      -0.834000       15.9994           0
     29934 TIP3     4200     TIP3     H1       HT       0.417000       1.00800           0
     29935 TIP3     4200     TIP3     H2       HT       0.417000       1.00800           0
     29936 TIP3     4201     TIP3     OH2      OT      -0.834000       15.9994           0
     29937 TIP3     4201     TIP3     H1       HT       0.417000       1.00800           0
     29938 TIP3     4201     TIP3     H2       HT       0.417000       1.00800           0
     29939 TIP3     4202     TIP3     OH2      OT      -0.834000       15.9994           0
     29940 TIP3     4202     TIP3     H1       HT       0.417000       1.00800           0
     29941 TIP3     4202     TIP3     H2       HT       0.417000       1.00800           0
     29942 TIP3     4203     TIP3     OH2      OT      -0.834000       15.9994           0
     29943 TIP3     4203     TIP3     H1       HT       0.417000       1.00800           0
     29944 TIP3     4203     TIP3     H2       HT       0.417000       1.00800           0
     29945 TIP3     4204     TIP3     OH2      OT      -0.834000       15.9994           0
     29946 TIP3     4204     TIP3     H1       HT       0.417000       1.00800           0
     29947 TIP3     4204     TIP3     H2       HT       0.417000       1.00800           0
     29948 TIP3     4205     TIP3     OH2      OT      -0.834000       15.9994           0
     29949 TIP3     4205     TIP3     H1       HT       0.417000       1.00800           0
     29950 TIP3     4205     TIP3     H2       HT       0.417000       1.00800           0
     29951 TIP3     4206     TIP3     OH2      OT      -0.834000       15.9994           0
     29952 TIP3     4206     TIP3     H1       HT       0.417000       1.00800           0
     29953 TIP3     4206     TIP3     H2       HT       0.417000       1.00800           0
     29954 TIP3     4207     TIP3     OH2      OT      -0.834000       15.9994           0
     29955 TIP3     4207     TIP3     H1       HT       0.417000       1.00800           0
     29956 TIP3     4207     TIP3     H2       HT       0.417000       1.00800           0
     29957 TIP3     4208     TIP3     OH2      OT      -0.834000       15.9994           0
     29958 TIP3     4208     TIP3     H1       HT       0.417000       1.00800           0
     29959 TIP3     4208     TIP3     H2       HT       0.417000       1.00800           0
     29960 TIP3     4209     TIP3     OH2      OT      -0.834000       15.9994           0
     29961 TIP3     4209     TIP3     H1       HT       0.417000       1.00800           0
     29962 TIP3     4209     TIP3     H2       HT       0.417000       1.00800           0
     29963 TIP3     4210     TIP3     OH2      OT      -0.834000       15.9994           0
     29964 TIP3     4210     TIP3     H1       HT       0.417000       1.00800           0
     29965 TIP3     4210     TIP3     H2       HT       0.417000       1.00800           0
     29966 TIP3     4211     TIP3     OH2      OT      -0.834000       15.9994           0
     29967 TIP3     4211     TIP3     H1       HT       0.417000       1.00800           0
     29968 TIP3     4211     TIP3     H2       HT       0.417000       1.00800           0
     29969 TIP3     4212     TIP3     OH2      OT      -0.834000       15.9994           0
     29970 TIP3     4212     TIP3     H1       HT       0.417000       1.00800           0
     29971 TIP3     4212     TIP3     H2       HT       0.417000       1.00800           0
     29972 TIP3     4213     TIP3     OH2      OT      -0.834000       15.9994           0
     29973 TIP3     4213     TIP3     H1       HT       0.417000       1.00800           0
     29974 TIP3     4213     TIP3     H2       HT       0.417000       1.00800           0
     29975 TIP3     4214     TIP3     OH2      OT      -0.834000       15.9994           0
     29976 TIP3     4214     TIP3     H1       HT       0.417000       1.00800           0
     29977 TIP3     4214     TIP3     H2       HT       0.417000       1.00800           0
     29978 TIP3     4215     TIP3     OH2      OT      -0.834000       15.9994           0
     29979 TIP3     4215     TIP3     H1       HT       0.417000       1.00800           0
     29980 TIP3     4215     TIP3     H2       HT       0.417000       1.00800           0
     29981 TIP3     4216     TIP3     OH2      OT      -0.834000       15.9994           0
     29982 TIP3     4216     TIP3     H1       HT       0.417000       1.00800           0
     29983 TIP3     4216     TIP3     H2       HT       0.417000       1.00800           0
     29984 TIP3     4217     TIP3     OH2      OT      -0.834000       15.9994           0
     29985 TIP3     4217     TIP3     H1       HT       0.417000       1.00800           0
     29986 TIP3     4217     TIP3     H2       HT       0.417000       1.00800           0
     29987 TIP3     4218     TIP3     OH2      OT      -0.834000       15.9994           0
     29988 TIP3     4218     TIP3     H1       HT       0.417000       1.00800           0
     29989 TIP3     4218     TIP3     H2       HT       0.417000       1.00800           0
     29990 TIP3     4219     TIP3     OH2      OT      -0.834000       15.9994           0
     29991 TIP3     4219     TIP3     H1       HT       0.417000       1.00800           0
     29992 TIP3     4219     TIP3     H2       HT       0.417000       1.00800           0
     29993 TIP3     4220     TIP3     OH2      OT      -0.834000       15.9994           0
     29994 TIP3     4220     TIP3     H1       HT       0.417000       1.00800           0
     29995 TIP3     4220     TIP3     H2       HT       0.417000       1.00800           0
     29996 TIP3     4221     TIP3     OH2      OT      -0.834000       15.9994           0
     29997 TIP3     4221     TIP3     H1       HT       0.417000       1.00800           0
     29998 TIP3     4221     TIP3     H2       HT       0.417000       1.00800           0
     29999 TIP3     4222     TIP3     OH2      OT      -0.834000       15.9994           0
     30000 TIP3     4222     TIP3     H1       HT       0.417000       1.00800           0
     30001 TIP3     4222     TIP3     H2       HT       0.417000       1.00800           0
     30002 TIP3     4223     TIP3     OH2      OT      -0.834000       15.9994           0
     30003 TIP3     4223     TIP3     H1       HT       0.417000       1.00800           0
     30004 TIP3     4223     TIP3     H2       HT       0.417000       1.00800           0
     30005 TIP3     4224     TIP3     OH2      OT      -0.834000       15.9994           0
     30006 TIP3     4224     TIP3     H1       HT       0.417000       1.00800           0
     30007 TIP3     4224     TIP3     H2       HT       0.417000       1.00800           0
     30008 TIP3     4225     TIP3     OH2      OT      -0.834000       15.9994           0
     30009 TIP3     4225     TIP3     H1       HT       0.417000       1.00800           0
     30010 TIP3     4225     TIP3     H2       HT       0.417000       1.00800           0
     30011 TIP3     4226     TIP3     OH2      OT      -0.834000       15.9994           0
     30012 TIP3     4226     TIP3     H1       HT       0.417000       1.00800           0
     30013 TIP3     4226     TIP3     H2       HT       0.417000       1.00800           0
     30014 TIP3     4227     TIP3     OH2      OT      -0.834000       15.9994           0
     30015 TIP3     4227     TIP3     H1       HT       0.417000       1.00800           0
     30016 TIP3     4227     TIP3     H2       HT       0.417000       1.00800           0
     30017 TIP3     4228     TIP3     OH2      OT      -0.834000       15.9994           0
     30018 TIP3     4228     TIP3     H1       HT       0.417000       1.00800           0
     30019 TIP3     4228     TIP3     H2       HT       0.417000       1.00800           0
     30020 TIP3     4229     TIP3     OH2      OT      -0.834000       15.9994           0
     30021 TIP3     4229     TIP3     H1       HT       0.417000       1.00800           0
     30022 TIP3     4229     TIP3     H2       HT       0.417000       1.00800           0
     30023 TIP3     4230     TIP3     OH2      OT      -0.834000       15.9994           0
     30024 TIP3     4230     TIP3     H1       HT       0.417000       1.00800           0
     30025 TIP3     4230     TIP3     H2       HT       0.417000       1.00800           0
     30026 TIP3     4231     TIP3     OH2      OT      -0.834000       15.9994           0
     30027 TIP3     4231     TIP3     H1       HT       0.417000       1.00800           0
     30028 TIP3     4231     TIP3     H2       HT       0.417000       1.00800           0
     30029 TIP3     4232     TIP3     OH2      OT      -0.834000       15.9994           0
     30030 TIP3     4232     TIP3     H1       HT       0.417000       1.00800           0
     30031 TIP3     4232     TIP3     H2       HT       0.417000       1.00800           0
     30032 TIP3     4233     TIP3     OH2      OT      -0.834000       15.9994           0
     30033 TIP3     4233     TIP3     H1       HT       0.417000       1.00800           0
     30034 TIP3     4233     TIP3     H2       HT       0.417000       1.00800           0
     30035 TIP3     4234     TIP3     OH2      OT      -0.834000       15.9994           0
     30036 TIP3     4234     TIP3     H1       HT       0.417000       1.00800           0
     30037 TIP3     4234     TIP3     H2       HT       0.417000       1.00800           0
     30038 TIP3     4235     TIP3     OH2      OT      -0.834000       15.9994           0
     30039 TIP3     4235     TIP3     H1       HT       0.417000       1.00800           0
     30040 TIP3     4235     TIP3     H2       HT       0.417000       1.00800           0
     30041 TIP3     4236     TIP3     OH2      OT      -0.834000       15.9994           0
     30042 TIP3     4236     TIP3     H1       HT       0.417000       1.00800           0
     30043 TIP3     4236     TIP3     H2       HT       0.417000       1.00800           0
     30044 TIP3     4237     TIP3     OH2      OT      -0.834000       15.9994           0
     30045 TIP3     4237     TIP3     H1       HT       0.417000       1.00800           0
     30046 TIP3     4237     TIP3     H2       HT       0.417000       1.00800           0
     30047 TIP3     4238     TIP3     OH2      OT      -0.834000       15.9994           0
     30048 TIP3     4238     TIP3     H1       HT       0.417000       1.00800           0
     30049 TIP3     4238     TIP3     H2       HT       0.417000       1.00800           0
     30050 TIP3     4239     TIP3     OH2      OT      -0.834000       15.9994           0
     30051 TIP3     4239     TIP3     H1       HT       0.417000       1.00800           0
     30052 TIP3     4239     TIP3     H2       HT       0.417000       1.00800           0
     30053 TIP3     4240     TIP3     OH2      OT      -0.834000       15.9994           0
     30054 TIP3     4240     TIP3     H1       HT       0.417000       1.00800           0
     30055 TIP3     4240     TIP3     H2       HT       0.417000       1.00800           0
     30056 TIP3     4241     TIP3     OH2      OT      -0.834000       15.9994           0
     30057 TIP3     4241     TIP3     H1       HT       0.417000       1.00800           0
     30058 TIP3     4241     TIP3     H2       HT       0.417000       1.00800           0
     30059 TIP3     4242     TIP3     OH2      OT      -0.834000       15.9994           0
     30060 TIP3     4242     TIP3     H1       HT       0.417000       1.00800           0
     30061 TIP3     4242     TIP3     H2       HT       0.417000       1.00800           0
     30062 TIP3     4243     TIP3     OH2      OT      -0.834000       15.9994           0
     30063 TIP3     4243     TIP3     H1       HT       0.417000       1.00800           0
     30064 TIP3     4243     TIP3     H2       HT       0.417000       1.00800           0
     30065 TIP3     4244     TIP3     OH2      OT      -0.834000       15.9994           0
     30066 TIP3     4244     TIP3     H1       HT       0.417000       1.00800           0
     30067 TIP3     4244     TIP3     H2       HT       0.417000       1.00800           0
     30068 TIP3     4245     TIP3     OH2      OT      -0.834000       15.9994           0
     30069 TIP3     4245     TIP3     H1       HT       0.417000       1.00800           0
     30070 TIP3     4245     TIP3     H2       HT       0.417000       1.00800           0
     30071 TIP3     4246     TIP3     OH2      OT      -0.834000       15.9994           0
     30072 TIP3     4246     TIP3     H1       HT       0.417000       1.00800           0
     30073 TIP3     4246     TIP3     H2       HT       0.417000       1.00800           0
     30074 TIP3     4247     TIP3     OH2      OT      -0.834000       15.9994           0
     30075 TIP3     4247     TIP3     H1       HT       0.417000       1.00800           0
     30076 TIP3     4247     TIP3     H2       HT       0.417000       1.00800           0
     30077 TIP3     4248     TIP3     OH2      OT      -0.834000       15.9994           0
     30078 TIP3     4248     TIP3     H1       HT       0.417000       1.00800           0
     30079 TIP3     4248     TIP3     H2       HT       0.417000       1.00800           0
     30080 TIP3     4249     TIP3     OH2      OT      -0.834000       15.9994           0
     30081 TIP3     4249     TIP3     H1       HT       0.417000       1.00800           0
     30082 TIP3     4249     TIP3     H2       HT       0.417000       1.00800           0
     30083 TIP3     4250     TIP3     OH2      OT      -0.834000       15.9994           0
     30084 TIP3     4250     TIP3     H1       HT       0.417000       1.00800           0
     30085 TIP3     4250     TIP3     H2       HT       0.417000       1.00800           0
     30086 TIP3     4251     TIP3     OH2      OT      -0.834000       15.9994           0
     30087 TIP3     4251     TIP3     H1       HT       0.417000       1.00800           0
     30088 TIP3     4251     TIP3     H2       HT       0.417000       1.00800           0
     30089 TIP3     4252     TIP3     OH2      OT      -0.834000       15.9994           0
     30090 TIP3     4252     TIP3     H1       HT       0.417000       1.00800           0
     30091 TIP3     4252     TIP3     H2       HT       0.417000       1.00800           0
     30092 TIP3     4253     TIP3     OH2      OT      -0.834000       15.9994           0
     30093 TIP3     4253     TIP3     H1       HT       0.417000       1.00800           0
     30094 TIP3     4253     TIP3     H2       HT       0.417000       1.00800           0
     30095 TIP3     4254     TIP3     OH2      OT      -0.834000       15.9994           0
     30096 TIP3     4254     TIP3     H1       HT       0.417000       1.00800           0
     30097 TIP3     4254     TIP3     H2       HT       0.417000       1.00800           0
     30098 TIP3     4255     TIP3     OH2      OT      -0.834000       15.9994           0
     30099 TIP3     4255     TIP3     H1       HT       0.417000       1.00800           0
     30100 TIP3     4255     TIP3     H2       HT       0.417000       1.00800           0
     30101 TIP3     4256     TIP3     OH2      OT      -0.834000       15.9994           0
     30102 TIP3     4256     TIP3     H1       HT       0.417000       1.00800           0
     30103 TIP3     4256     TIP3     H2       HT       0.417000       1.00800           0
     30104 TIP3     4257     TIP3     OH2      OT      -0.834000       15.9994           0
     30105 TIP3     4257     TIP3     H1       HT       0.417000       1.00800           0
     30106 TIP3     4257     TIP3     H2       HT       0.417000       1.00800           0
     30107 TIP3     4258     TIP3     OH2      OT      -0.834000       15.9994           0
     30108 TIP3     4258     TIP3     H1       HT       0.417000       1.00800           0
     30109 TIP3     4258     TIP3     H2       HT       0.417000       1.00800           0
     30110 TIP3     4259     TIP3     OH2      OT      -0.834000       15.9994           0
     30111 TIP3     4259     TIP3     H1       HT       0.417000       1.00800           0
     30112 TIP3     4259     TIP3     H2       HT       0.417000       1.00800           0
     30113 TIP3     4260     TIP3     OH2      OT      -0.834000       15.9994           0
     30114 TIP3     4260     TIP3     H1       HT       0.417000       1.00800           0
     30115 TIP3     4260     TIP3     H2       HT       0.417000       1.00800           0
     30116 TIP3     4261     TIP3     OH2      OT      -0.834000       15.9994           0
     30117 TIP3     4261     TIP3     H1       HT       0.417000       1.00800           0
     30118 TIP3     4261     TIP3     H2       HT       0.417000       1.00800           0
     30119 TIP3     4262     TIP3     OH2      OT      -0.834000       15.9994           0
     30120 TIP3     4262     TIP3     H1       HT       0.417000       1.00800           0
     30121 TIP3     4262     TIP3     H2       HT       0.417000       1.00800           0
     30122 TIP3     4263     TIP3     OH2      OT      -0.834000       15.9994           0
     30123 TIP3     4263     TIP3     H1       HT       0.417000       1.00800           0
     30124 TIP3     4263     TIP3     H2       HT       0.417000       1.00800           0
     30125 TIP3     4264     TIP3     OH2      OT      -0.834000       15.9994           0
     30126 TIP3     4264     TIP3     H1       HT       0.417000       1.00800           0
     30127 TIP3     4264     TIP3     H2       HT       0.417000       1.00800           0
     30128 TIP3     4265     TIP3     OH2      OT      -0.834000       15.9994           0
     30129 TIP3     4265     TIP3     H1       HT       0.417000       1.00800           0
     30130 TIP3     4265     TIP3     H2       HT       0.417000       1.00800           0
     30131 TIP3     4266     TIP3     OH2      OT      -0.834000       15.9994           0
     30132 TIP3     4266     TIP3     H1       HT       0.417000       1.00800           0
     30133 TIP3     4266     TIP3     H2       HT       0.417000       1.00800           0
     30134 TIP3     4267     TIP3     OH2      OT      -0.834000       15.9994           0
     30135 TIP3     4267     TIP3     H1       HT       0.417000       1.00800           0
     30136 TIP3     4267     TIP3     H2       HT       0.417000       1.00800           0
     30137 TIP3     4268     TIP3     OH2      OT      -0.834000       15.9994           0
     30138 TIP3     4268     TIP3     H1       HT       0.417000       1.00800           0
     30139 TIP3     4268     TIP3     H2       HT       0.417000       1.00800           0
     30140 TIP3     4269     TIP3     OH2      OT      -0.834000       15.9994           0
     30141 TIP3     4269     TIP3     H1       HT       0.417000       1.00800           0
     30142 TIP3     4269     TIP3     H2       HT       0.417000       1.00800           0
     30143 TIP3     4270     TIP3     OH2      OT      -0.834000       15.9994           0
     30144 TIP3     4270     TIP3     H1       HT       0.417000       1.00800           0
     30145 TIP3     4270     TIP3     H2       HT       0.417000       1.00800           0
     30146 TIP3     4271     TIP3     OH2      OT      -0.834000       15.9994           0
     30147 TIP3     4271     TIP3     H1       HT       0.417000       1.00800           0
     30148 TIP3     4271     TIP3     H2       HT       0.417000       1.00800           0
     30149 TIP3     4272     TIP3     OH2      OT      -0.834000       15.9994           0
     30150 TIP3     4272     TIP3     H1       HT       0.417000       1.00800           0
     30151 TIP3     4272     TIP3     H2       HT       0.417000       1.00800           0
     30152 TIP3     4273     TIP3     OH2      OT      -0.834000       15.9994           0
     30153 TIP3     4273     TIP3     H1       HT       0.417000       1.00800           0
     30154 TIP3     4273     TIP3     H2       HT       0.417000       1.00800           0
     30155 TIP3     4274     TIP3     OH2      OT      -0.834000       15.9994           0
     30156 TIP3     4274     TIP3     H1       HT       0.417000       1.00800           0
     30157 TIP3     4274     TIP3     H2       HT       0.417000       1.00800           0
     30158 TIP3     4275     TIP3     OH2      OT      -0.834000       15.9994           0
     30159 TIP3     4275     TIP3     H1       HT       0.417000       1.00800           0
     30160 TIP3     4275     TIP3     H2       HT       0.417000       1.00800           0
     30161 TIP3     4276     TIP3     OH2      OT      -0.834000       15.9994           0
     30162 TIP3     4276     TIP3     H1       HT       0.417000       1.00800           0
     30163 TIP3     4276     TIP3     H2       HT       0.417000       1.00800           0
     30164 TIP3     4277     TIP3     OH2      OT      -0.834000       15.9994           0
     30165 TIP3     4277     TIP3     H1       HT       0.417000       1.00800           0
     30166 TIP3     4277     TIP3     H2       HT       0.417000       1.00800           0
     30167 TIP3     4278     TIP3     OH2      OT      -0.834000       15.9994           0
     30168 TIP3     4278     TIP3     H1       HT       0.417000       1.00800           0
     30169 TIP3     4278     TIP3     H2       HT       0.417000       1.00800           0
     30170 TIP3     4279     TIP3     OH2      OT      -0.834000       15.9994           0
     30171 TIP3     4279     TIP3     H1       HT       0.417000       1.00800           0
     30172 TIP3     4279     TIP3     H2       HT       0.417000       1.00800           0
     30173 TIP3     4280     TIP3     OH2      OT      -0.834000       15.9994           0
     30174 TIP3     4280     TIP3     H1       HT       0.417000       1.00800           0
     30175 TIP3     4280     TIP3     H2       HT       0.417000       1.00800           0
     30176 TIP3     4281     TIP3     OH2      OT      -0.834000       15.9994           0
     30177 TIP3     4281     TIP3     H1       HT       0.417000       1.00800           0
     30178 TIP3     4281     TIP3     H2       HT       0.417000       1.00800           0
     30179 TIP3     4282     TIP3     OH2      OT      -0.834000       15.9994           0
     30180 TIP3     4282     TIP3     H1       HT       0.417000       1.00800           0
     30181 TIP3     4282     TIP3     H2       HT       0.417000       1.00800           0
     30182 TIP3     4283     TIP3     OH2      OT      -0.834000       15.9994           0
     30183 TIP3     4283     TIP3     H1       HT       0.417000       1.00800           0
     30184 TIP3     4283     TIP3     H2       HT       0.417000       1.00800           0
     30185 TIP3     4284     TIP3     OH2      OT      -0.834000       15.9994           0
     30186 TIP3     4284     TIP3     H1       HT       0.417000       1.00800           0
     30187 TIP3     4284     TIP3     H2       HT       0.417000       1.00800           0
     30188 TIP3     4285     TIP3     OH2      OT      -0.834000       15.9994           0
     30189 TIP3     4285     TIP3     H1       HT       0.417000       1.00800           0
     30190 TIP3     4285     TIP3     H2       HT       0.417000       1.00800           0
     30191 TIP3     4286     TIP3     OH2      OT      -0.834000       15.9994           0
     30192 TIP3     4286     TIP3     H1       HT       0.417000       1.00800           0
     30193 TIP3     4286     TIP3     H2       HT       0.417000       1.00800           0
     30194 TIP3     4287     TIP3     OH2      OT      -0.834000       15.9994           0
     30195 TIP3     4287     TIP3     H1       HT       0.417000       1.00800           0
     30196 TIP3     4287     TIP3     H2       HT       0.417000       1.00800           0
     30197 TIP3     4288     TIP3     OH2      OT      -0.834000       15.9994           0
     30198 TIP3     4288     TIP3     H1       HT       0.417000       1.00800           0
     30199 TIP3     4288     TIP3     H2       HT       0.417000       1.00800           0
     30200 TIP3     4289     TIP3     OH2      OT      -0.834000       15.9994           0
     30201 TIP3     4289     TIP3     H1       HT       0.417000       1.00800           0
     30202 TIP3     4289     TIP3     H2       HT       0.417000       1.00800           0
     30203 TIP3     4290     TIP3     OH2      OT      -0.834000       15.9994           0
     30204 TIP3     4290     TIP3     H1       HT       0.417000       1.00800           0
     30205 TIP3     4290     TIP3     H2       HT       0.417000       1.00800           0
     30206 TIP3     4291     TIP3     OH2      OT      -0.834000       15.9994           0
     30207 TIP3     4291     TIP3     H1       HT       0.417000       1.00800           0
     30208 TIP3     4291     TIP3     H2       HT       0.417000       1.00800           0
     30209 TIP3     4292     TIP3     OH2      OT      -0.834000       15.9994           0
     30210 TIP3     4292     TIP3     H1       HT       0.417000       1.00800           0
     30211 TIP3     4292     TIP3     H2       HT       0.417000       1.00800           0
     30212 TIP3     4293     TIP3     OH2      OT      -0.834000       15.9994           0
     30213 TIP3     4293     TIP3     H1       HT       0.417000       1.00800           0
     30214 TIP3     4293     TIP3     H2       HT       0.417000       1.00800           0
     30215 TIP3     4294     TIP3     OH2      OT      -0.834000       15.9994           0
     30216 TIP3     4294     TIP3     H1       HT       0.417000       1.00800           0
     30217 TIP3     4294     TIP3     H2       HT       0.417000       1.00800           0
     30218 TIP3     4295     TIP3     OH2      OT      -0.834000       15.9994           0
     30219 TIP3     4295     TIP3     H1       HT       0.417000       1.00800           0
     30220 TIP3     4295     TIP3     H2       HT       0.417000       1.00800           0
     30221 TIP3     4296     TIP3     OH2      OT      -0.834000       15.9994           0
     30222 TIP3     4296     TIP3     H1       HT       0.417000       1.00800           0
     30223 TIP3     4296     TIP3     H2       HT       0.417000       1.00800           0
     30224 TIP3     4297     TIP3     OH2      OT      -0.834000       15.9994           0
     30225 TIP3     4297     TIP3     H1       HT       0.417000       1.00800           0
     30226 TIP3     4297     TIP3     H2       HT       0.417000       1.00800           0
     30227 TIP3     4298     TIP3     OH2      OT      -0.834000       15.9994           0
     30228 TIP3     4298     TIP3     H1       HT       0.417000       1.00800           0
     30229 TIP3     4298     TIP3     H2       HT       0.417000       1.00800           0
     30230 TIP3     4299     TIP3     OH2      OT      -0.834000       15.9994           0
     30231 TIP3     4299     TIP3     H1       HT       0.417000       1.00800           0
     30232 TIP3     4299     TIP3     H2       HT       0.417000       1.00800           0
     30233 TIP3     4300     TIP3     OH2      OT      -0.834000       15.9994           0
     30234 TIP3     4300     TIP3     H1       HT       0.417000       1.00800           0
     30235 TIP3     4300     TIP3     H2       HT       0.417000       1.00800           0
     30236 TIP3     4301     TIP3     OH2      OT      -0.834000       15.9994           0
     30237 TIP3     4301     TIP3     H1       HT       0.417000       1.00800           0
     30238 TIP3     4301     TIP3     H2       HT       0.417000       1.00800           0
     30239 TIP3     4302     TIP3     OH2      OT      -0.834000       15.9994           0
     30240 TIP3     4302     TIP3     H1       HT       0.417000       1.00800           0
     30241 TIP3     4302     TIP3     H2       HT       0.417000       1.00800           0
     30242 TIP3     4303     TIP3     OH2      OT      -0.834000       15.9994           0
     30243 TIP3     4303     TIP3     H1       HT       0.417000       1.00800           0
     30244 TIP3     4303     TIP3     H2       HT       0.417000       1.00800           0
     30245 TIP3     4304     TIP3     OH2      OT      -0.834000       15.9994           0
     30246 TIP3     4304     TIP3     H1       HT       0.417000       1.00800           0
     30247 TIP3     4304     TIP3     H2       HT       0.417000       1.00800           0
     30248 TIP3     4305     TIP3     OH2      OT      -0.834000       15.9994           0
     30249 TIP3     4305     TIP3     H1       HT       0.417000       1.00800           0
     30250 TIP3     4305     TIP3     H2       HT       0.417000       1.00800           0
     30251 TIP3     4306     TIP3     OH2      OT      -0.834000       15.9994           0
     30252 TIP3     4306     TIP3     H1       HT       0.417000       1.00800           0
     30253 TIP3     4306     TIP3     H2       HT       0.417000       1.00800           0
     30254 TIP3     4307     TIP3     OH2      OT      -0.834000       15.9994           0
     30255 TIP3     4307     TIP3     H1       HT       0.417000       1.00800           0
     30256 TIP3     4307     TIP3     H2       HT       0.417000       1.00800           0
     30257 TIP3     4308     TIP3     OH2      OT      -0.834000       15.9994           0
     30258 TIP3     4308     TIP3     H1       HT       0.417000       1.00800           0
     30259 TIP3     4308     TIP3     H2       HT       0.417000       1.00800           0
     30260 TIP3     4309     TIP3     OH2      OT      -0.834000       15.9994           0
     30261 TIP3     4309     TIP3     H1       HT       0.417000       1.00800           0
     30262 TIP3     4309     TIP3     H2       HT       0.417000       1.00800           0
     30263 TIP3     4310     TIP3     OH2      OT      -0.834000       15.9994           0
     30264 TIP3     4310     TIP3     H1       HT       0.417000       1.00800           0
     30265 TIP3     4310     TIP3     H2       HT       0.417000       1.00800           0
     30266 TIP3     4311     TIP3     OH2      OT      -0.834000       15.9994           0
     30267 TIP3     4311     TIP3     H1       HT       0.417000       1.00800           0
     30268 TIP3     4311     TIP3     H2       HT       0.417000       1.00800           0
     30269 TIP3     4312     TIP3     OH2      OT      -0.834000       15.9994           0
     30270 TIP3     4312     TIP3     H1       HT       0.417000       1.00800           0
     30271 TIP3     4312     TIP3     H2       HT       0.417000       1.00800           0
     30272 TIP3     4313     TIP3     OH2      OT      -0.834000       15.9994           0
     30273 TIP3     4313     TIP3     H1       HT       0.417000       1.00800           0
     30274 TIP3     4313     TIP3     H2       HT       0.417000       1.00800           0
     30275 TIP3     4314     TIP3     OH2      OT      -0.834000       15.9994           0
     30276 TIP3     4314     TIP3     H1       HT       0.417000       1.00800           0
     30277 TIP3     4314     TIP3     H2       HT       0.417000       1.00800           0
     30278 TIP3     4315     TIP3     OH2      OT      -0.834000       15.9994           0
     30279 TIP3     4315     TIP3     H1       HT       0.417000       1.00800           0
     30280 TIP3     4315     TIP3     H2       HT       0.417000       1.00800           0
     30281 TIP3     4316     TIP3     OH2      OT      -0.834000       15.9994           0
     30282 TIP3     4316     TIP3     H1       HT       0.417000       1.00800           0
     30283 TIP3     4316     TIP3     H2       HT       0.417000       1.00800           0
     30284 TIP3     4317     TIP3     OH2      OT      -0.834000       15.9994           0
     30285 TIP3     4317     TIP3     H1       HT       0.417000       1.00800           0
     30286 TIP3     4317     TIP3     H2       HT       0.417000       1.00800           0
     30287 TIP3     4318     TIP3     OH2      OT      -0.834000       15.9994           0
     30288 TIP3     4318     TIP3     H1       HT       0.417000       1.00800           0
     30289 TIP3     4318     TIP3     H2       HT       0.417000       1.00800           0
     30290 TIP3     4319     TIP3     OH2      OT      -0.834000       15.9994           0
     30291 TIP3     4319     TIP3     H1       HT       0.417000       1.00800           0
     30292 TIP3     4319     TIP3     H2       HT       0.417000       1.00800           0
     30293 TIP3     4320     TIP3     OH2      OT      -0.834000       15.9994           0
     30294 TIP3     4320     TIP3     H1       HT       0.417000       1.00800           0
     30295 TIP3     4320     TIP3     H2       HT       0.417000       1.00800           0
     30296 TIP3     4321     TIP3     OH2      OT      -0.834000       15.9994           0
     30297 TIP3     4321     TIP3     H1       HT       0.417000       1.00800           0
     30298 TIP3     4321     TIP3     H2       HT       0.417000       1.00800           0
     30299 TIP3     4322     TIP3     OH2      OT      -0.834000       15.9994           0
     30300 TIP3     4322     TIP3     H1       HT       0.417000       1.00800           0
     30301 TIP3     4322     TIP3     H2       HT       0.417000       1.00800           0
     30302 TIP3     4323     TIP3     OH2      OT      -0.834000       15.9994           0
     30303 TIP3     4323     TIP3     H1       HT       0.417000       1.00800           0
     30304 TIP3     4323     TIP3     H2       HT       0.417000       1.00800           0
     30305 TIP3     4324     TIP3     OH2      OT      -0.834000       15.9994           0
     30306 TIP3     4324     TIP3     H1       HT       0.417000       1.00800           0
     30307 TIP3     4324     TIP3     H2       HT       0.417000       1.00800           0
     30308 TIP3     4325     TIP3     OH2      OT      -0.834000       15.9994           0
     30309 TIP3     4325     TIP3     H1       HT       0.417000       1.00800           0
     30310 TIP3     4325     TIP3     H2       HT       0.417000       1.00800           0
     30311 TIP3     4326     TIP3     OH2      OT      -0.834000       15.9994           0
     30312 TIP3     4326     TIP3     H1       HT       0.417000       1.00800           0
     30313 TIP3     4326     TIP3     H2       HT       0.417000       1.00800           0
     30314 TIP3     4327     TIP3     OH2      OT      -0.834000       15.9994           0
     30315 TIP3     4327     TIP3     H1       HT       0.417000       1.00800           0
     30316 TIP3     4327     TIP3     H2       HT       0.417000       1.00800           0
     30317 TIP3     4328     TIP3     OH2      OT      -0.834000       15.9994           0
     30318 TIP3     4328     TIP3     H1       HT       0.417000       1.00800           0
     30319 TIP3     4328     TIP3     H2       HT       0.417000       1.00800           0
     30320 TIP3     4329     TIP3     OH2      OT      -0.834000       15.9994           0
     30321 TIP3     4329     TIP3     H1       HT       0.417000       1.00800           0
     30322 TIP3     4329     TIP3     H2       HT       0.417000       1.00800           0
     30323 TIP3     4330     TIP3     OH2      OT      -0.834000       15.9994           0
     30324 TIP3     4330     TIP3     H1       HT       0.417000       1.00800           0
     30325 TIP3     4330     TIP3     H2       HT       0.417000       1.00800           0
     30326 TIP3     4331     TIP3     OH2      OT      -0.834000       15.9994           0
     30327 TIP3     4331     TIP3     H1       HT       0.417000       1.00800           0
     30328 TIP3     4331     TIP3     H2       HT       0.417000       1.00800           0
     30329 TIP3     4332     TIP3     OH2      OT      -0.834000       15.9994           0
     30330 TIP3     4332     TIP3     H1       HT       0.417000       1.00800           0
     30331 TIP3     4332     TIP3     H2       HT       0.417000       1.00800           0
     30332 TIP3     4333     TIP3     OH2      OT      -0.834000       15.9994           0
     30333 TIP3     4333     TIP3     H1       HT       0.417000       1.00800           0
     30334 TIP3     4333     TIP3     H2       HT       0.417000       1.00800           0
     30335 TIP3     4334     TIP3     OH2      OT      -0.834000       15.9994           0
     30336 TIP3     4334     TIP3     H1       HT       0.417000       1.00800           0
     30337 TIP3     4334     TIP3     H2       HT       0.417000       1.00800           0
     30338 TIP3     4335     TIP3     OH2      OT      -0.834000       15.9994           0
     30339 TIP3     4335     TIP3     H1       HT       0.417000       1.00800           0
     30340 TIP3     4335     TIP3     H2       HT       0.417000       1.00800           0
     30341 TIP3     4336     TIP3     OH2      OT      -0.834000       15.9994           0
     30342 TIP3     4336     TIP3     H1       HT       0.417000       1.00800           0
     30343 TIP3     4336     TIP3     H2       HT       0.417000       1.00800           0
     30344 TIP3     4337     TIP3     OH2      OT      -0.834000       15.9994           0
     30345 TIP3     4337     TIP3     H1       HT       0.417000       1.00800           0
     30346 TIP3     4337     TIP3     H2       HT       0.417000       1.00800           0
     30347 TIP3     4338     TIP3     OH2      OT      -0.834000       15.9994           0
     30348 TIP3     4338     TIP3     H1       HT       0.417000       1.00800           0
     30349 TIP3     4338     TIP3     H2       HT       0.417000       1.00800           0
     30350 TIP3     4339     TIP3     OH2      OT      -0.834000       15.9994           0
     30351 TIP3     4339     TIP3     H1       HT       0.417000       1.00800           0
     30352 TIP3     4339     TIP3     H2       HT       0.417000       1.00800           0
     30353 TIP3     4340     TIP3     OH2      OT      -0.834000       15.9994           0
     30354 TIP3     4340     TIP3     H1       HT       0.417000       1.00800           0
     30355 TIP3     4340     TIP3     H2       HT       0.417000       1.00800           0
     30356 TIP3     4341     TIP3     OH2      OT      -0.834000       15.9994           0
     30357 TIP3     4341     TIP3     H1       HT       0.417000       1.00800           0
     30358 TIP3     4341     TIP3     H2       HT       0.417000       1.00800           0
     30359 TIP3     4342     TIP3     OH2      OT      -0.834000       15.9994           0
     30360 TIP3     4342     TIP3     H1       HT       0.417000       1.00800           0
     30361 TIP3     4342     TIP3     H2       HT       0.417000       1.00800           0
     30362 TIP3     4343     TIP3     OH2      OT      -0.834000       15.9994           0
     30363 TIP3     4343     TIP3     H1       HT       0.417000       1.00800           0
     30364 TIP3     4343     TIP3     H2       HT       0.417000       1.00800           0
     30365 TIP3     4344     TIP3     OH2      OT      -0.834000       15.9994           0
     30366 TIP3     4344     TIP3     H1       HT       0.417000       1.00800           0
     30367 TIP3     4344     TIP3     H2       HT       0.417000       1.00800           0
     30368 TIP3     4345     TIP3     OH2      OT      -0.834000       15.9994           0
     30369 TIP3     4345     TIP3     H1       HT       0.417000       1.00800           0
     30370 TIP3     4345     TIP3     H2       HT       0.417000       1.00800           0
     30371 TIP3     4346     TIP3     OH2      OT      -0.834000       15.9994           0
     30372 TIP3     4346     TIP3     H1       HT       0.417000       1.00800           0
     30373 TIP3     4346     TIP3     H2       HT       0.417000       1.00800           0
     30374 TIP3     4347     TIP3     OH2      OT      -0.834000       15.9994           0
     30375 TIP3     4347     TIP3     H1       HT       0.417000       1.00800           0
     30376 TIP3     4347     TIP3     H2       HT       0.417000       1.00800           0
     30377 TIP3     4348     TIP3     OH2      OT      -0.834000       15.9994           0
     30378 TIP3     4348     TIP3     H1       HT       0.417000       1.00800           0
     30379 TIP3     4348     TIP3     H2       HT       0.417000       1.00800           0
     30380 TIP3     4349     TIP3     OH2      OT      -0.834000       15.9994           0
     30381 TIP3     4349     TIP3     H1       HT       0.417000       1.00800           0
     30382 TIP3     4349     TIP3     H2       HT       0.417000       1.00800           0
     30383 TIP3     4350     TIP3     OH2      OT      -0.834000       15.9994           0
     30384 TIP3     4350     TIP3     H1       HT       0.417000       1.00800           0
     30385 TIP3     4350     TIP3     H2       HT       0.417000       1.00800           0
     30386 TIP3     4351     TIP3     OH2      OT      -0.834000       15.9994           0
     30387 TIP3     4351     TIP3     H1       HT       0.417000       1.00800           0
     30388 TIP3     4351     TIP3     H2       HT       0.417000       1.00800           0
     30389 TIP3     4352     TIP3     OH2      OT      -0.834000       15.9994           0
     30390 TIP3     4352     TIP3     H1       HT       0.417000       1.00800           0
     30391 TIP3     4352     TIP3     H2       HT       0.417000       1.00800           0
     30392 TIP3     4353     TIP3     OH2      OT      -0.834000       15.9994           0
     30393 TIP3     4353     TIP3     H1       HT       0.417000       1.00800           0
     30394 TIP3     4353     TIP3     H2       HT       0.417000       1.00800           0
     30395 TIP3     4354     TIP3     OH2      OT      -0.834000       15.9994           0
     30396 TIP3     4354     TIP3     H1       HT       0.417000       1.00800           0
     30397 TIP3     4354     TIP3     H2       HT       0.417000       1.00800           0
     30398 TIP3     4355     TIP3     OH2      OT      -0.834000       15.9994           0
     30399 TIP3     4355     TIP3     H1       HT       0.417000       1.00800           0
     30400 TIP3     4355     TIP3     H2       HT       0.417000       1.00800           0
     30401 TIP3     4356     TIP3     OH2      OT      -0.834000       15.9994           0
     30402 TIP3     4356     TIP3     H1       HT       0.417000       1.00800           0
     30403 TIP3     4356     TIP3     H2       HT       0.417000       1.00800           0
     30404 TIP3     4357     TIP3     OH2      OT      -0.834000       15.9994           0
     30405 TIP3     4357     TIP3     H1       HT       0.417000       1.00800           0
     30406 TIP3     4357     TIP3     H2       HT       0.417000       1.00800           0
     30407 TIP3     4358     TIP3     OH2      OT      -0.834000       15.9994           0
     30408 TIP3     4358     TIP3     H1       HT       0.417000       1.00800           0
     30409 TIP3     4358     TIP3     H2       HT       0.417000       1.00800           0
     30410 TIP3     4359     TIP3     OH2      OT      -0.834000       15.9994           0
     30411 TIP3     4359     TIP3     H1       HT       0.417000       1.00800           0
     30412 TIP3     4359     TIP3     H2       HT       0.417000       1.00800           0
     30413 TIP3     4360     TIP3     OH2      OT      -0.834000       15.9994           0
     30414 TIP3     4360     TIP3     H1       HT       0.417000       1.00800           0
     30415 TIP3     4360     TIP3     H2       HT       0.417000       1.00800           0
     30416 TIP3     4361     TIP3     OH2      OT      -0.834000       15.9994           0
     30417 TIP3     4361     TIP3     H1       HT       0.417000       1.00800           0
     30418 TIP3     4361     TIP3     H2       HT       0.417000       1.00800           0
     30419 TIP3     4362     TIP3     OH2      OT      -0.834000       15.9994           0
     30420 TIP3     4362     TIP3     H1       HT       0.417000       1.00800           0
     30421 TIP3     4362     TIP3     H2       HT       0.417000       1.00800           0
     30422 TIP3     4363     TIP3     OH2      OT      -0.834000       15.9994           0
     30423 TIP3     4363     TIP3     H1       HT       0.417000       1.00800           0
     30424 TIP3     4363     TIP3     H2       HT       0.417000       1.00800           0
     30425 TIP3     4364     TIP3     OH2      OT      -0.834000       15.9994           0
     30426 TIP3     4364     TIP3     H1       HT       0.417000       1.00800           0
     30427 TIP3     4364     TIP3     H2       HT       0.417000       1.00800           0
     30428 TIP3     4365     TIP3     OH2      OT      -0.834000       15.9994           0
     30429 TIP3     4365     TIP3     H1       HT       0.417000       1.00800           0
     30430 TIP3     4365     TIP3     H2       HT       0.417000       1.00800           0
     30431 TIP3     4366     TIP3     OH2      OT      -0.834000       15.9994           0
     30432 TIP3     4366     TIP3     H1       HT       0.417000       1.00800           0
     30433 TIP3     4366     TIP3     H2       HT       0.417000       1.00800           0
     30434 TIP3     4367     TIP3     OH2      OT      -0.834000       15.9994           0
     30435 TIP3     4367     TIP3     H1       HT       0.417000       1.00800           0
     30436 TIP3     4367     TIP3     H2       HT       0.417000       1.00800           0
     30437 TIP3     4368     TIP3     OH2      OT      -0.834000       15.9994           0
     30438 TIP3     4368     TIP3     H1       HT       0.417000       1.00800           0
     30439 TIP3     4368     TIP3     H2       HT       0.417000       1.00800           0
     30440 TIP3     4369     TIP3     OH2      OT      -0.834000       15.9994           0
     30441 TIP3     4369     TIP3     H1       HT       0.417000       1.00800           0
     30442 TIP3     4369     TIP3     H2       HT       0.417000       1.00800           0
     30443 TIP3     4370     TIP3     OH2      OT      -0.834000       15.9994           0
     30444 TIP3     4370     TIP3     H1       HT       0.417000       1.00800           0
     30445 TIP3     4370     TIP3     H2       HT       0.417000       1.00800           0
     30446 TIP3     4371     TIP3     OH2      OT      -0.834000       15.9994           0
     30447 TIP3     4371     TIP3     H1       HT       0.417000       1.00800           0
     30448 TIP3     4371     TIP3     H2       HT       0.417000       1.00800           0
     30449 TIP3     4372     TIP3     OH2      OT      -0.834000       15.9994           0
     30450 TIP3     4372     TIP3     H1       HT       0.417000       1.00800           0
     30451 TIP3     4372     TIP3     H2       HT       0.417000       1.00800           0
     30452 TIP3     4373     TIP3     OH2      OT      -0.834000       15.9994           0
     30453 TIP3     4373     TIP3     H1       HT       0.417000       1.00800           0
     30454 TIP3     4373     TIP3     H2       HT       0.417000       1.00800           0
     30455 TIP3     4374     TIP3     OH2      OT      -0.834000       15.9994           0
     30456 TIP3     4374     TIP3     H1       HT       0.417000       1.00800           0
     30457 TIP3     4374     TIP3     H2       HT       0.417000       1.00800           0
     30458 TIP3     4375     TIP3     OH2      OT      -0.834000       15.9994           0
     30459 TIP3     4375     TIP3     H1       HT       0.417000       1.00800           0
     30460 TIP3     4375     TIP3     H2       HT       0.417000       1.00800           0
     30461 TIP3     4376     TIP3     OH2      OT      -0.834000       15.9994           0
     30462 TIP3     4376     TIP3     H1       HT       0.417000       1.00800           0
     30463 TIP3     4376     TIP3     H2       HT       0.417000       1.00800           0
     30464 TIP3     4377     TIP3     OH2      OT      -0.834000       15.9994           0
     30465 TIP3     4377     TIP3     H1       HT       0.417000       1.00800           0
     30466 TIP3     4377     TIP3     H2       HT       0.417000       1.00800           0
     30467 TIP3     4378     TIP3     OH2      OT      -0.834000       15.9994           0
     30468 TIP3     4378     TIP3     H1       HT       0.417000       1.00800           0
     30469 TIP3     4378     TIP3     H2       HT       0.417000       1.00800           0
     30470 TIP3     4379     TIP3     OH2      OT      -0.834000       15.9994           0
     30471 TIP3     4379     TIP3     H1       HT       0.417000       1.00800           0
     30472 TIP3     4379     TIP3     H2       HT       0.417000       1.00800           0
     30473 TIP3     4380     TIP3     OH2      OT      -0.834000       15.9994           0
     30474 TIP3     4380     TIP3     H1       HT       0.417000       1.00800           0
     30475 TIP3     4380     TIP3     H2       HT       0.417000       1.00800           0
     30476 TIP3     4381     TIP3     OH2      OT      -0.834000       15.9994           0
     30477 TIP3     4381     TIP3     H1       HT       0.417000       1.00800           0
     30478 TIP3     4381     TIP3     H2       HT       0.417000       1.00800           0
     30479 TIP3     4382     TIP3     OH2      OT      -0.834000       15.9994           0
     30480 TIP3     4382     TIP3     H1       HT       0.417000       1.00800           0
     30481 TIP3     4382     TIP3     H2       HT       0.417000       1.00800           0
     30482 TIP3     4383     TIP3     OH2      OT      -0.834000       15.9994           0
     30483 TIP3     4383     TIP3     H1       HT       0.417000       1.00800           0
     30484 TIP3     4383     TIP3     H2       HT       0.417000       1.00800           0
     30485 TIP3     4384     TIP3     OH2      OT      -0.834000       15.9994           0
     30486 TIP3     4384     TIP3     H1       HT       0.417000       1.00800           0
     30487 TIP3     4384     TIP3     H2       HT       0.417000       1.00800           0
     30488 TIP3     4385     TIP3     OH2      OT      -0.834000       15.9994           0
     30489 TIP3     4385     TIP3     H1       HT       0.417000       1.00800           0
     30490 TIP3     4385     TIP3     H2       HT       0.417000       1.00800           0
     30491 TIP3     4386     TIP3     OH2      OT      -0.834000       15.9994           0
     30492 TIP3     4386     TIP3     H1       HT       0.417000       1.00800           0
     30493 TIP3     4386     TIP3     H2       HT       0.417000       1.00800           0
     30494 TIP3     4387     TIP3     OH2      OT      -0.834000       15.9994           0
     30495 TIP3     4387     TIP3     H1       HT       0.417000       1.00800           0
     30496 TIP3     4387     TIP3     H2       HT       0.417000       1.00800           0
     30497 TIP3     4388     TIP3     OH2      OT      -0.834000       15.9994           0
     30498 TIP3     4388     TIP3     H1       HT       0.417000       1.00800           0
     30499 TIP3     4388     TIP3     H2       HT       0.417000       1.00800           0
     30500 TIP3     4389     TIP3     OH2      OT      -0.834000       15.9994           0
     30501 TIP3     4389     TIP3     H1       HT       0.417000       1.00800           0
     30502 TIP3     4389     TIP3     H2       HT       0.417000       1.00800           0
     30503 TIP3     4390     TIP3     OH2      OT      -0.834000       15.9994           0
     30504 TIP3     4390     TIP3     H1       HT       0.417000       1.00800           0
     30505 TIP3     4390     TIP3     H2       HT       0.417000       1.00800           0
     30506 TIP3     4391     TIP3     OH2      OT      -0.834000       15.9994           0
     30507 TIP3     4391     TIP3     H1       HT       0.417000       1.00800           0
     30508 TIP3     4391     TIP3     H2       HT       0.417000       1.00800           0
     30509 TIP3     4392     TIP3     OH2      OT      -0.834000       15.9994           0
     30510 TIP3     4392     TIP3     H1       HT       0.417000       1.00800           0
     30511 TIP3     4392     TIP3     H2       HT       0.417000       1.00800           0
     30512 TIP3     4393     TIP3     OH2      OT      -0.834000       15.9994           0
     30513 TIP3     4393     TIP3     H1       HT       0.417000       1.00800           0
     30514 TIP3     4393     TIP3     H2       HT       0.417000       1.00800           0
     30515 TIP3     4394     TIP3     OH2      OT      -0.834000       15.9994           0
     30516 TIP3     4394     TIP3     H1       HT       0.417000       1.00800           0
     30517 TIP3     4394     TIP3     H2       HT       0.417000       1.00800           0
     30518 TIP3     4395     TIP3     OH2      OT      -0.834000       15.9994           0
     30519 TIP3     4395     TIP3     H1       HT       0.417000       1.00800           0
     30520 TIP3     4395     TIP3     H2       HT       0.417000       1.00800           0
     30521 TIP3     4396     TIP3     OH2      OT      -0.834000       15.9994           0
     30522 TIP3     4396     TIP3     H1       HT       0.417000       1.00800           0
     30523 TIP3     4396     TIP3     H2       HT       0.417000       1.00800           0
     30524 TIP3     4397     TIP3     OH2      OT      -0.834000       15.9994           0
     30525 TIP3     4397     TIP3     H1       HT       0.417000       1.00800           0
     30526 TIP3     4397     TIP3     H2       HT       0.417000       1.00800           0
     30527 TIP3     4398     TIP3     OH2      OT      -0.834000       15.9994           0
     30528 TIP3     4398     TIP3     H1       HT       0.417000       1.00800           0
     30529 TIP3     4398     TIP3     H2       HT       0.417000       1.00800           0
     30530 TIP3     4399     TIP3     OH2      OT      -0.834000       15.9994           0
     30531 TIP3     4399     TIP3     H1       HT       0.417000       1.00800           0
     30532 TIP3     4399     TIP3     H2       HT       0.417000       1.00800           0
     30533 TIP3     4400     TIP3     OH2      OT      -0.834000       15.9994           0
     30534 TIP3     4400     TIP3     H1       HT       0.417000       1.00800           0
     30535 TIP3     4400     TIP3     H2       HT       0.417000       1.00800           0
     30536 TIP3     4401     TIP3     OH2      OT      -0.834000       15.9994           0
     30537 TIP3     4401     TIP3     H1       HT       0.417000       1.00800           0
     30538 TIP3     4401     TIP3     H2       HT       0.417000       1.00800           0
     30539 TIP3     4402     TIP3     OH2      OT      -0.834000       15.9994           0
     30540 TIP3     4402     TIP3     H1       HT       0.417000       1.00800           0
     30541 TIP3     4402     TIP3     H2       HT       0.417000       1.00800           0
     30542 TIP3     4403     TIP3     OH2      OT      -0.834000       15.9994           0
     30543 TIP3     4403     TIP3     H1       HT       0.417000       1.00800           0
     30544 TIP3     4403     TIP3     H2       HT       0.417000       1.00800           0
     30545 TIP3     4404     TIP3     OH2      OT      -0.834000       15.9994           0
     30546 TIP3     4404     TIP3     H1       HT       0.417000       1.00800           0
     30547 TIP3     4404     TIP3     H2       HT       0.417000       1.00800           0
     30548 TIP3     4405     TIP3     OH2      OT      -0.834000       15.9994           0
     30549 TIP3     4405     TIP3     H1       HT       0.417000       1.00800           0
     30550 TIP3     4405     TIP3     H2       HT       0.417000       1.00800           0
     30551 TIP3     4406     TIP3     OH2      OT      -0.834000       15.9994           0
     30552 TIP3     4406     TIP3     H1       HT       0.417000       1.00800           0
     30553 TIP3     4406     TIP3     H2       HT       0.417000       1.00800           0
     30554 TIP3     4407     TIP3     OH2      OT      -0.834000       15.9994           0
     30555 TIP3     4407     TIP3     H1       HT       0.417000       1.00800           0
     30556 TIP3     4407     TIP3     H2       HT       0.417000       1.00800           0
     30557 TIP3     4408     TIP3     OH2      OT      -0.834000       15.9994           0
     30558 TIP3     4408     TIP3     H1       HT       0.417000       1.00800           0
     30559 TIP3     4408     TIP3     H2       HT       0.417000       1.00800           0
     30560 TIP3     4409     TIP3     OH2      OT      -0.834000       15.9994           0
     30561 TIP3     4409     TIP3     H1       HT       0.417000       1.00800           0
     30562 TIP3     4409     TIP3     H2       HT       0.417000       1.00800           0
     30563 TIP3     4410     TIP3     OH2      OT      -0.834000       15.9994           0
     30564 TIP3     4410     TIP3     H1       HT       0.417000       1.00800           0
     30565 TIP3     4410     TIP3     H2       HT       0.417000       1.00800           0
     30566 TIP3     4411     TIP3     OH2      OT      -0.834000       15.9994           0
     30567 TIP3     4411     TIP3     H1       HT       0.417000       1.00800           0
     30568 TIP3     4411     TIP3     H2       HT       0.417000       1.00800           0
     30569 TIP3     4412     TIP3     OH2      OT      -0.834000       15.9994           0
     30570 TIP3     4412     TIP3     H1       HT       0.417000       1.00800           0
     30571 TIP3     4412     TIP3     H2       HT       0.417000       1.00800           0
     30572 TIP3     4413     TIP3     OH2      OT      -0.834000       15.9994           0
     30573 TIP3     4413     TIP3     H1       HT       0.417000       1.00800           0
     30574 TIP3     4413     TIP3     H2       HT       0.417000       1.00800           0
     30575 TIP3     4414     TIP3     OH2      OT      -0.834000       15.9994           0
     30576 TIP3     4414     TIP3     H1       HT       0.417000       1.00800           0
     30577 TIP3     4414     TIP3     H2       HT       0.417000       1.00800           0
     30578 TIP3     4415     TIP3     OH2      OT      -0.834000       15.9994           0
     30579 TIP3     4415     TIP3     H1       HT       0.417000       1.00800           0
     30580 TIP3     4415     TIP3     H2       HT       0.417000       1.00800           0
     30581 TIP3     4416     TIP3     OH2      OT      -0.834000       15.9994           0
     30582 TIP3     4416     TIP3     H1       HT       0.417000       1.00800           0
     30583 TIP3     4416     TIP3     H2       HT       0.417000       1.00800           0
     30584 TIP3     4417     TIP3     OH2      OT      -0.834000       15.9994           0
     30585 TIP3     4417     TIP3     H1       HT       0.417000       1.00800           0
     30586 TIP3     4417     TIP3     H2       HT       0.417000       1.00800           0
     30587 TIP3     4418     TIP3     OH2      OT      -0.834000       15.9994           0
     30588 TIP3     4418     TIP3     H1       HT       0.417000       1.00800           0
     30589 TIP3     4418     TIP3     H2       HT       0.417000       1.00800           0
     30590 TIP3     4419     TIP3     OH2      OT      -0.834000       15.9994           0
     30591 TIP3     4419     TIP3     H1       HT       0.417000       1.00800           0
     30592 TIP3     4419     TIP3     H2       HT       0.417000       1.00800           0
     30593 TIP3     4420     TIP3     OH2      OT      -0.834000       15.9994           0
     30594 TIP3     4420     TIP3     H1       HT       0.417000       1.00800           0
     30595 TIP3     4420     TIP3     H2       HT       0.417000       1.00800           0
     30596 TIP3     4421     TIP3     OH2      OT      -0.834000       15.9994           0
     30597 TIP3     4421     TIP3     H1       HT       0.417000       1.00800           0
     30598 TIP3     4421     TIP3     H2       HT       0.417000       1.00800           0
     30599 TIP3     4422     TIP3     OH2      OT      -0.834000       15.9994           0
     30600 TIP3     4422     TIP3     H1       HT       0.417000       1.00800           0
     30601 TIP3     4422     TIP3     H2       HT       0.417000       1.00800           0
     30602 TIP3     4423     TIP3     OH2      OT      -0.834000       15.9994           0
     30603 TIP3     4423     TIP3     H1       HT       0.417000       1.00800           0
     30604 TIP3     4423     TIP3     H2       HT       0.417000       1.00800           0
     30605 TIP3     4424     TIP3     OH2      OT      -0.834000       15.9994           0
     30606 TIP3     4424     TIP3     H1       HT       0.417000       1.00800           0
     30607 TIP3     4424     TIP3     H2       HT       0.417000       1.00800           0
     30608 TIP3     4425     TIP3     OH2      OT      -0.834000       15.9994           0
     30609 TIP3     4425     TIP3     H1       HT       0.417000       1.00800           0
     30610 TIP3     4425     TIP3     H2       HT       0.417000       1.00800           0
     30611 TIP3     4426     TIP3     OH2      OT      -0.834000       15.9994           0
     30612 TIP3     4426     TIP3     H1       HT       0.417000       1.00800           0
     30613 TIP3     4426     TIP3     H2       HT       0.417000       1.00800           0
     30614 TIP3     4427     TIP3     OH2      OT      -0.834000       15.9994           0
     30615 TIP3     4427     TIP3     H1       HT       0.417000       1.00800           0
     30616 TIP3     4427     TIP3     H2       HT       0.417000       1.00800           0
     30617 TIP3     4428     TIP3     OH2      OT      -0.834000       15.9994           0
     30618 TIP3     4428     TIP3     H1       HT       0.417000       1.00800           0
     30619 TIP3     4428     TIP3     H2       HT       0.417000       1.00800           0
     30620 TIP3     4429     TIP3     OH2      OT      -0.834000       15.9994           0
     30621 TIP3     4429     TIP3     H1       HT       0.417000       1.00800           0
     30622 TIP3     4429     TIP3     H2       HT       0.417000       1.00800           0
     30623 TIP3     4430     TIP3     OH2      OT      -0.834000       15.9994           0
     30624 TIP3     4430     TIP3     H1       HT       0.417000       1.00800           0
     30625 TIP3     4430     TIP3     H2       HT       0.417000       1.00800           0
     30626 TIP3     4431     TIP3     OH2      OT      -0.834000       15.9994           0
     30627 TIP3     4431     TIP3     H1       HT       0.417000       1.00800           0
     30628 TIP3     4431     TIP3     H2       HT       0.417000       1.00800           0
     30629 TIP3     4432     TIP3     OH2      OT      -0.834000       15.9994           0
     30630 TIP3     4432     TIP3     H1       HT       0.417000       1.00800           0
     30631 TIP3     4432     TIP3     H2       HT       0.417000       1.00800           0
     30632 TIP3     4433     TIP3     OH2      OT      -0.834000       15.9994           0
     30633 TIP3     4433     TIP3     H1       HT       0.417000       1.00800           0
     30634 TIP3     4433     TIP3     H2       HT       0.417000       1.00800           0
     30635 TIP3     4434     TIP3     OH2      OT      -0.834000       15.9994           0
     30636 TIP3     4434     TIP3     H1       HT       0.417000       1.00800           0
     30637 TIP3     4434     TIP3     H2       HT       0.417000       1.00800           0
     30638 TIP3     4435     TIP3     OH2      OT      -0.834000       15.9994           0
     30639 TIP3     4435     TIP3     H1       HT       0.417000       1.00800           0
     30640 TIP3     4435     TIP3     H2       HT       0.417000       1.00800           0
     30641 TIP3     4436     TIP3     OH2      OT      -0.834000       15.9994           0
     30642 TIP3     4436     TIP3     H1       HT       0.417000       1.00800           0
     30643 TIP3     4436     TIP3     H2       HT       0.417000       1.00800           0
     30644 TIP3     4437     TIP3     OH2      OT      -0.834000       15.9994           0
     30645 TIP3     4437     TIP3     H1       HT       0.417000       1.00800           0
     30646 TIP3     4437     TIP3     H2       HT       0.417000       1.00800           0
     30647 TIP3     4438     TIP3     OH2      OT      -0.834000       15.9994           0
     30648 TIP3     4438     TIP3     H1       HT       0.417000       1.00800           0
     30649 TIP3     4438     TIP3     H2       HT       0.417000       1.00800           0
     30650 TIP3     4439     TIP3     OH2      OT      -0.834000       15.9994           0
     30651 TIP3     4439     TIP3     H1       HT       0.417000       1.00800           0
     30652 TIP3     4439     TIP3     H2       HT       0.417000       1.00800           0
     30653 TIP3     4440     TIP3     OH2      OT      -0.834000       15.9994           0
     30654 TIP3     4440     TIP3     H1       HT       0.417000       1.00800           0
     30655 TIP3     4440     TIP3     H2       HT       0.417000       1.00800           0
     30656 TIP3     4441     TIP3     OH2      OT      -0.834000       15.9994           0
     30657 TIP3     4441     TIP3     H1       HT       0.417000       1.00800           0
     30658 TIP3     4441     TIP3     H2       HT       0.417000       1.00800           0
     30659 TIP3     4442     TIP3     OH2      OT      -0.834000       15.9994           0
     30660 TIP3     4442     TIP3     H1       HT       0.417000       1.00800           0
     30661 TIP3     4442     TIP3     H2       HT       0.417000       1.00800           0
     30662 TIP3     4443     TIP3     OH2      OT      -0.834000       15.9994           0
     30663 TIP3     4443     TIP3     H1       HT       0.417000       1.00800           0
     30664 TIP3     4443     TIP3     H2       HT       0.417000       1.00800           0
     30665 TIP3     4444     TIP3     OH2      OT      -0.834000       15.9994           0
     30666 TIP3     4444     TIP3     H1       HT       0.417000       1.00800           0
     30667 TIP3     4444     TIP3     H2       HT       0.417000       1.00800           0
     30668 TIP3     4445     TIP3     OH2      OT      -0.834000       15.9994           0
     30669 TIP3     4445     TIP3     H1       HT       0.417000       1.00800           0
     30670 TIP3     4445     TIP3     H2       HT       0.417000       1.00800           0
     30671 TIP3     4446     TIP3     OH2      OT      -0.834000       15.9994           0
     30672 TIP3     4446     TIP3     H1       HT       0.417000       1.00800           0
     30673 TIP3     4446     TIP3     H2       HT       0.417000       1.00800           0
     30674 TIP3     4447     TIP3     OH2      OT      -0.834000       15.9994           0
     30675 TIP3     4447     TIP3     H1       HT       0.417000       1.00800           0
     30676 TIP3     4447     TIP3     H2       HT       0.417000       1.00800           0
     30677 TIP3     4448     TIP3     OH2      OT      -0.834000       15.9994           0
     30678 TIP3     4448     TIP3     H1       HT       0.417000       1.00800           0
     30679 TIP3     4448     TIP3     H2       HT       0.417000       1.00800           0
     30680 TIP3     4449     TIP3     OH2      OT      -0.834000       15.9994           0
     30681 TIP3     4449     TIP3     H1       HT       0.417000       1.00800           0
     30682 TIP3     4449     TIP3     H2       HT       0.417000       1.00800           0
     30683 TIP3     4450     TIP3     OH2      OT      -0.834000       15.9994           0
     30684 TIP3     4450     TIP3     H1       HT       0.417000       1.00800           0
     30685 TIP3     4450     TIP3     H2       HT       0.417000       1.00800           0
     30686 TIP3     4451     TIP3     OH2      OT      -0.834000       15.9994           0
     30687 TIP3     4451     TIP3     H1       HT       0.417000       1.00800           0
     30688 TIP3     4451     TIP3     H2       HT       0.417000       1.00800           0
     30689 TIP3     4452     TIP3     OH2      OT      -0.834000       15.9994           0
     30690 TIP3     4452     TIP3     H1       HT       0.417000       1.00800           0
     30691 TIP3     4452     TIP3     H2       HT       0.417000       1.00800           0
     30692 TIP3     4453     TIP3     OH2      OT      -0.834000       15.9994           0
     30693 TIP3     4453     TIP3     H1       HT       0.417000       1.00800           0
     30694 TIP3     4453     TIP3     H2       HT       0.417000       1.00800           0
     30695 TIP3     4454     TIP3     OH2      OT      -0.834000       15.9994           0
     30696 TIP3     4454     TIP3     H1       HT       0.417000       1.00800           0
     30697 TIP3     4454     TIP3     H2       HT       0.417000       1.00800           0
     30698 TIP3     4455     TIP3     OH2      OT      -0.834000       15.9994           0
     30699 TIP3     4455     TIP3     H1       HT       0.417000       1.00800           0
     30700 TIP3     4455     TIP3     H2       HT       0.417000       1.00800           0
     30701 TIP3     4456     TIP3     OH2      OT      -0.834000       15.9994           0
     30702 TIP3     4456     TIP3     H1       HT       0.417000       1.00800           0
     30703 TIP3     4456     TIP3     H2       HT       0.417000       1.00800           0
     30704 TIP3     4457     TIP3     OH2      OT      -0.834000       15.9994           0
     30705 TIP3     4457     TIP3     H1       HT       0.417000       1.00800           0
     30706 TIP3     4457     TIP3     H2       HT       0.417000       1.00800           0
     30707 TIP3     4458     TIP3     OH2      OT      -0.834000       15.9994           0
     30708 TIP3     4458     TIP3     H1       HT       0.417000       1.00800           0
     30709 TIP3     4458     TIP3     H2       HT       0.417000       1.00800           0
     30710 TIP3     4459     TIP3     OH2      OT      -0.834000       15.9994           0
     30711 TIP3     4459     TIP3     H1       HT       0.417000       1.00800           0
     30712 TIP3     4459     TIP3     H2       HT       0.417000       1.00800           0
     30713 TIP3     4460     TIP3     OH2      OT      -0.834000       15.9994           0
     30714 TIP3     4460     TIP3     H1       HT       0.417000       1.00800           0
     30715 TIP3     4460     TIP3     H2       HT       0.417000       1.00800           0
     30716 TIP3     4461     TIP3     OH2      OT      -0.834000       15.9994           0
     30717 TIP3     4461     TIP3     H1       HT       0.417000       1.00800           0
     30718 TIP3     4461     TIP3     H2       HT       0.417000       1.00800           0
     30719 TIP3     4462     TIP3     OH2      OT      -0.834000       15.9994           0
     30720 TIP3     4462     TIP3     H1       HT       0.417000       1.00800           0
     30721 TIP3     4462     TIP3     H2       HT       0.417000       1.00800           0
     30722 TIP3     4463     TIP3     OH2      OT      -0.834000       15.9994           0
     30723 TIP3     4463     TIP3     H1       HT       0.417000       1.00800           0
     30724 TIP3     4463     TIP3     H2       HT       0.417000       1.00800           0
     30725 TIP3     4464     TIP3     OH2      OT      -0.834000       15.9994           0
     30726 TIP3     4464     TIP3     H1       HT       0.417000       1.00800           0
     30727 TIP3     4464     TIP3     H2       HT       0.417000       1.00800           0
     30728 TIP3     4465     TIP3     OH2      OT      -0.834000       15.9994           0
     30729 TIP3     4465     TIP3     H1       HT       0.417000       1.00800           0
     30730 TIP3     4465     TIP3     H2       HT       0.417000       1.00800           0
     30731 TIP3     4466     TIP3     OH2      OT      -0.834000       15.9994           0
     30732 TIP3     4466     TIP3     H1       HT       0.417000       1.00800           0
     30733 TIP3     4466     TIP3     H2       HT       0.417000       1.00800           0
     30734 TIP3     4467     TIP3     OH2      OT      -0.834000       15.9994           0
     30735 TIP3     4467     TIP3     H1       HT       0.417000       1.00800           0
     30736 TIP3     4467     TIP3     H2       HT       0.417000       1.00800           0
     30737 TIP3     4468     TIP3     OH2      OT      -0.834000       15.9994           0
     30738 TIP3     4468     TIP3     H1       HT       0.417000       1.00800           0
     30739 TIP3     4468     TIP3     H2       HT       0.417000       1.00800           0
     30740 TIP3     4469     TIP3     OH2      OT      -0.834000       15.9994           0
     30741 TIP3     4469     TIP3     H1       HT       0.417000       1.00800           0
     30742 TIP3     4469     TIP3     H2       HT       0.417000       1.00800           0
     30743 TIP3     4470     TIP3     OH2      OT      -0.834000       15.9994           0
     30744 TIP3     4470     TIP3     H1       HT       0.417000       1.00800           0
     30745 TIP3     4470     TIP3     H2       HT       0.417000       1.00800           0
     30746 TIP3     4471     TIP3     OH2      OT      -0.834000       15.9994           0
     30747 TIP3     4471     TIP3     H1       HT       0.417000       1.00800           0
     30748 TIP3     4471     TIP3     H2       HT       0.417000       1.00800           0
     30749 TIP3     4472     TIP3     OH2      OT      -0.834000       15.9994           0
     30750 TIP3     4472     TIP3     H1       HT       0.417000       1.00800           0
     30751 TIP3     4472     TIP3     H2       HT       0.417000       1.00800           0
     30752 TIP3     4473     TIP3     OH2      OT      -0.834000       15.9994           0
     30753 TIP3     4473     TIP3     H1       HT       0.417000       1.00800           0
     30754 TIP3     4473     TIP3     H2       HT       0.417000       1.00800           0
     30755 TIP3     4474     TIP3     OH2      OT      -0.834000       15.9994           0
     30756 TIP3     4474     TIP3     H1       HT       0.417000       1.00800           0
     30757 TIP3     4474     TIP3     H2       HT       0.417000       1.00800           0
     30758 TIP3     4475     TIP3     OH2      OT      -0.834000       15.9994           0
     30759 TIP3     4475     TIP3     H1       HT       0.417000       1.00800           0
     30760 TIP3     4475     TIP3     H2       HT       0.417000       1.00800           0
     30761 TIP3     4476     TIP3     OH2      OT      -0.834000       15.9994           0
     30762 TIP3     4476     TIP3     H1       HT       0.417000       1.00800           0
     30763 TIP3     4476     TIP3     H2       HT       0.417000       1.00800           0
     30764 TIP3     4477     TIP3     OH2      OT      -0.834000       15.9994           0
     30765 TIP3     4477     TIP3     H1       HT       0.417000       1.00800           0
     30766 TIP3     4477     TIP3     H2       HT       0.417000       1.00800           0
     30767 TIP3     4478     TIP3     OH2      OT      -0.834000       15.9994           0
     30768 TIP3     4478     TIP3     H1       HT       0.417000       1.00800           0
     30769 TIP3     4478     TIP3     H2       HT       0.417000       1.00800           0
     30770 TIP3     4479     TIP3     OH2      OT      -0.834000       15.9994           0
     30771 TIP3     4479     TIP3     H1       HT       0.417000       1.00800           0
     30772 TIP3     4479     TIP3     H2       HT       0.417000       1.00800           0
     30773 TIP3     4480     TIP3     OH2      OT      -0.834000       15.9994           0
     30774 TIP3     4480     TIP3     H1       HT       0.417000       1.00800           0
     30775 TIP3     4480     TIP3     H2       HT       0.417000       1.00800           0
     30776 TIP3     4481     TIP3     OH2      OT      -0.834000       15.9994           0
     30777 TIP3     4481     TIP3     H1       HT       0.417000       1.00800           0
     30778 TIP3     4481     TIP3     H2       HT       0.417000       1.00800           0
     30779 TIP3     4482     TIP3     OH2      OT      -0.834000       15.9994           0
     30780 TIP3     4482     TIP3     H1       HT       0.417000       1.00800           0
     30781 TIP3     4482     TIP3     H2       HT       0.417000       1.00800           0
     30782 TIP3     4483     TIP3     OH2      OT      -0.834000       15.9994           0
     30783 TIP3     4483     TIP3     H1       HT       0.417000       1.00800           0
     30784 TIP3     4483     TIP3     H2       HT       0.417000       1.00800           0
     30785 TIP3     4484     TIP3     OH2      OT      -0.834000       15.9994           0
     30786 TIP3     4484     TIP3     H1       HT       0.417000       1.00800           0
     30787 TIP3     4484     TIP3     H2       HT       0.417000       1.00800           0
     30788 TIP3     4485     TIP3     OH2      OT      -0.834000       15.9994           0
     30789 TIP3     4485     TIP3     H1       HT       0.417000       1.00800           0
     30790 TIP3     4485     TIP3     H2       HT       0.417000       1.00800           0
     30791 TIP3     4486     TIP3     OH2      OT      -0.834000       15.9994           0
     30792 TIP3     4486     TIP3     H1       HT       0.417000       1.00800           0
     30793 TIP3     4486     TIP3     H2       HT       0.417000       1.00800           0
     30794 TIP3     4487     TIP3     OH2      OT      -0.834000       15.9994           0
     30795 TIP3     4487     TIP3     H1       HT       0.417000       1.00800           0
     30796 TIP3     4487     TIP3     H2       HT       0.417000       1.00800           0
     30797 TIP3     4488     TIP3     OH2      OT      -0.834000       15.9994           0
     30798 TIP3     4488     TIP3     H1       HT       0.417000       1.00800           0
     30799 TIP3     4488     TIP3     H2       HT       0.417000       1.00800           0
     30800 TIP3     4489     TIP3     OH2      OT      -0.834000       15.9994           0
     30801 TIP3     4489     TIP3     H1       HT       0.417000       1.00800           0
     30802 TIP3     4489     TIP3     H2       HT       0.417000       1.00800           0
     30803 TIP3     4490     TIP3     OH2      OT      -0.834000       15.9994           0
     30804 TIP3     4490     TIP3     H1       HT       0.417000       1.00800           0
     30805 TIP3     4490     TIP3     H2       HT       0.417000       1.00800           0
     30806 TIP3     4491     TIP3     OH2      OT      -0.834000       15.9994           0
     30807 TIP3     4491     TIP3     H1       HT       0.417000       1.00800           0
     30808 TIP3     4491     TIP3     H2       HT       0.417000       1.00800           0
     30809 TIP3     4492     TIP3     OH2      OT      -0.834000       15.9994           0
     30810 TIP3     4492     TIP3     H1       HT       0.417000       1.00800           0
     30811 TIP3     4492     TIP3     H2       HT       0.417000       1.00800           0
     30812 TIP3     4493     TIP3     OH2      OT      -0.834000       15.9994           0
     30813 TIP3     4493     TIP3     H1       HT       0.417000       1.00800           0
     30814 TIP3     4493     TIP3     H2       HT       0.417000       1.00800           0
     30815 TIP3     4494     TIP3     OH2      OT      -0.834000       15.9994           0
     30816 TIP3     4494     TIP3     H1       HT       0.417000       1.00800           0
     30817 TIP3     4494     TIP3     H2       HT       0.417000       1.00800           0
     30818 TIP3     4495     TIP3     OH2      OT      -0.834000       15.9994           0
     30819 TIP3     4495     TIP3     H1       HT       0.417000       1.00800           0
     30820 TIP3     4495     TIP3     H2       HT       0.417000       1.00800           0
     30821 TIP3     4496     TIP3     OH2      OT      -0.834000       15.9994           0
     30822 TIP3     4496     TIP3     H1       HT       0.417000       1.00800           0
     30823 TIP3     4496     TIP3     H2       HT       0.417000       1.00800           0
     30824 TIP3     4497     TIP3     OH2      OT      -0.834000       15.9994           0
     30825 TIP3     4497     TIP3     H1       HT       0.417000       1.00800           0
     30826 TIP3     4497     TIP3     H2       HT       0.417000       1.00800           0
     30827 TIP3     4498     TIP3     OH2      OT      -0.834000       15.9994           0
     30828 TIP3     4498     TIP3     H1       HT       0.417000       1.00800           0
     30829 TIP3     4498     TIP3     H2       HT       0.417000       1.00800           0
     30830 TIP3     4499     TIP3     OH2      OT      -0.834000       15.9994           0
     30831 TIP3     4499     TIP3     H1       HT       0.417000       1.00800           0
     30832 TIP3     4499     TIP3     H2       HT       0.417000       1.00800           0
     30833 TIP3     4500     TIP3     OH2      OT      -0.834000       15.9994           0
     30834 TIP3     4500     TIP3     H1       HT       0.417000       1.00800           0
     30835 TIP3     4500     TIP3     H2       HT       0.417000       1.00800           0
     30836 TIP3     4501     TIP3     OH2      OT      -0.834000       15.9994           0
     30837 TIP3     4501     TIP3     H1       HT       0.417000       1.00800           0
     30838 TIP3     4501     TIP3     H2       HT       0.417000       1.00800           0
     30839 TIP3     4502     TIP3     OH2      OT      -0.834000       15.9994           0
     30840 TIP3     4502     TIP3     H1       HT       0.417000       1.00800           0
     30841 TIP3     4502     TIP3     H2       HT       0.417000       1.00800           0
     30842 TIP3     4503     TIP3     OH2      OT      -0.834000       15.9994           0
     30843 TIP3     4503     TIP3     H1       HT       0.417000       1.00800           0
     30844 TIP3     4503     TIP3     H2       HT       0.417000       1.00800           0
     30845 TIP3     4504     TIP3     OH2      OT      -0.834000       15.9994           0
     30846 TIP3     4504     TIP3     H1       HT       0.417000       1.00800           0
     30847 TIP3     4504     TIP3     H2       HT       0.417000       1.00800           0
     30848 TIP3     4505     TIP3     OH2      OT      -0.834000       15.9994           0
     30849 TIP3     4505     TIP3     H1       HT       0.417000       1.00800           0
     30850 TIP3     4505     TIP3     H2       HT       0.417000       1.00800           0
     30851 TIP3     4506     TIP3     OH2      OT      -0.834000       15.9994           0
     30852 TIP3     4506     TIP3     H1       HT       0.417000       1.00800           0
     30853 TIP3     4506     TIP3     H2       HT       0.417000       1.00800           0
     30854 TIP3     4507     TIP3     OH2      OT      -0.834000       15.9994           0
     30855 TIP3     4507     TIP3     H1       HT       0.417000       1.00800           0
     30856 TIP3     4507     TIP3     H2       HT       0.417000       1.00800           0
     30857 TIP3     4508     TIP3     OH2      OT      -0.834000       15.9994           0
     30858 TIP3     4508     TIP3     H1       HT       0.417000       1.00800           0
     30859 TIP3     4508     TIP3     H2       HT       0.417000       1.00800           0
     30860 TIP3     4509     TIP3     OH2      OT      -0.834000       15.9994           0
     30861 TIP3     4509     TIP3     H1       HT       0.417000       1.00800           0
     30862 TIP3     4509     TIP3     H2       HT       0.417000       1.00800           0
     30863 TIP3     4510     TIP3     OH2      OT      -0.834000       15.9994           0
     30864 TIP3     4510     TIP3     H1       HT       0.417000       1.00800           0
     30865 TIP3     4510     TIP3     H2       HT       0.417000       1.00800           0
     30866 TIP3     4511     TIP3     OH2      OT      -0.834000       15.9994           0
     30867 TIP3     4511     TIP3     H1       HT       0.417000       1.00800           0
     30868 TIP3     4511     TIP3     H2       HT       0.417000       1.00800           0
     30869 TIP3     4512     TIP3     OH2      OT      -0.834000       15.9994           0
     30870 TIP3     4512     TIP3     H1       HT       0.417000       1.00800           0
     30871 TIP3     4512     TIP3     H2       HT       0.417000       1.00800           0
     30872 TIP3     4513     TIP3     OH2      OT      -0.834000       15.9994           0
     30873 TIP3     4513     TIP3     H1       HT       0.417000       1.00800           0
     30874 TIP3     4513     TIP3     H2       HT       0.417000       1.00800           0
     30875 TIP3     4514     TIP3     OH2      OT      -0.834000       15.9994           0
     30876 TIP3     4514     TIP3     H1       HT       0.417000       1.00800           0
     30877 TIP3     4514     TIP3     H2       HT       0.417000       1.00800           0
     30878 TIP3     4515     TIP3     OH2      OT      -0.834000       15.9994           0
     30879 TIP3     4515     TIP3     H1       HT       0.417000       1.00800           0
     30880 TIP3     4515     TIP3     H2       HT       0.417000       1.00800           0
     30881 TIP3     4516     TIP3     OH2      OT      -0.834000       15.9994           0
     30882 TIP3     4516     TIP3     H1       HT       0.417000       1.00800           0
     30883 TIP3     4516     TIP3     H2       HT       0.417000       1.00800           0
     30884 TIP3     4517     TIP3     OH2      OT      -0.834000       15.9994           0
     30885 TIP3     4517     TIP3     H1       HT       0.417000       1.00800           0
     30886 TIP3     4517     TIP3     H2       HT       0.417000       1.00800           0
     30887 TIP3     4518     TIP3     OH2      OT      -0.834000       15.9994           0
     30888 TIP3     4518     TIP3     H1       HT       0.417000       1.00800           0
     30889 TIP3     4518     TIP3     H2       HT       0.417000       1.00800           0
     30890 TIP3     4519     TIP3     OH2      OT      -0.834000       15.9994           0
     30891 TIP3     4519     TIP3     H1       HT       0.417000       1.00800           0
     30892 TIP3     4519     TIP3     H2       HT       0.417000       1.00800           0
     30893 TIP3     4520     TIP3     OH2      OT      -0.834000       15.9994           0
     30894 TIP3     4520     TIP3     H1       HT       0.417000       1.00800           0
     30895 TIP3     4520     TIP3     H2       HT       0.417000       1.00800           0
     30896 TIP3     4521     TIP3     OH2      OT      -0.834000       15.9994           0
     30897 TIP3     4521     TIP3     H1       HT       0.417000       1.00800           0
     30898 TIP3     4521     TIP3     H2       HT       0.417000       1.00800           0
     30899 TIP3     4522     TIP3     OH2      OT      -0.834000       15.9994           0
     30900 TIP3     4522     TIP3     H1       HT       0.417000       1.00800           0
     30901 TIP3     4522     TIP3     H2       HT       0.417000       1.00800           0
     30902 TIP3     4523     TIP3     OH2      OT      -0.834000       15.9994           0
     30903 TIP3     4523     TIP3     H1       HT       0.417000       1.00800           0
     30904 TIP3     4523     TIP3     H2       HT       0.417000       1.00800           0
     30905 TIP3     4524     TIP3     OH2      OT      -0.834000       15.9994           0
     30906 TIP3     4524     TIP3     H1       HT       0.417000       1.00800           0
     30907 TIP3     4524     TIP3     H2       HT       0.417000       1.00800           0
     30908 TIP3     4525     TIP3     OH2      OT      -0.834000       15.9994           0
     30909 TIP3     4525     TIP3     H1       HT       0.417000       1.00800           0
     30910 TIP3     4525     TIP3     H2       HT       0.417000       1.00800           0
     30911 TIP3     4526     TIP3     OH2      OT      -0.834000       15.9994           0
     30912 TIP3     4526     TIP3     H1       HT       0.417000       1.00800           0
     30913 TIP3     4526     TIP3     H2       HT       0.417000       1.00800           0
     30914 TIP3     4527     TIP3     OH2      OT      -0.834000       15.9994           0
     30915 TIP3     4527     TIP3     H1       HT       0.417000       1.00800           0
     30916 TIP3     4527     TIP3     H2       HT       0.417000       1.00800           0
     30917 TIP3     4528     TIP3     OH2      OT      -0.834000       15.9994           0
     30918 TIP3     4528     TIP3     H1       HT       0.417000       1.00800           0
     30919 TIP3     4528     TIP3     H2       HT       0.417000       1.00800           0
     30920 TIP3     4529     TIP3     OH2      OT      -0.834000       15.9994           0
     30921 TIP3     4529     TIP3     H1       HT       0.417000       1.00800           0
     30922 TIP3     4529     TIP3     H2       HT       0.417000       1.00800           0
     30923 TIP3     4530     TIP3     OH2      OT      -0.834000       15.9994           0
     30924 TIP3     4530     TIP3     H1       HT       0.417000       1.00800           0
     30925 TIP3     4530     TIP3     H2       HT       0.417000       1.00800           0
     30926 TIP3     4531     TIP3     OH2      OT      -0.834000       15.9994           0
     30927 TIP3     4531     TIP3     H1       HT       0.417000       1.00800           0
     30928 TIP3     4531     TIP3     H2       HT       0.417000       1.00800           0
     30929 TIP3     4532     TIP3     OH2      OT      -0.834000       15.9994           0
     30930 TIP3     4532     TIP3     H1       HT       0.417000       1.00800           0
     30931 TIP3     4532     TIP3     H2       HT       0.417000       1.00800           0
     30932 TIP3     4533     TIP3     OH2      OT      -0.834000       15.9994           0
     30933 TIP3     4533     TIP3     H1       HT       0.417000       1.00800           0
     30934 TIP3     4533     TIP3     H2       HT       0.417000       1.00800           0
     30935 TIP3     4534     TIP3     OH2      OT      -0.834000       15.9994           0
     30936 TIP3     4534     TIP3     H1       HT       0.417000       1.00800           0
     30937 TIP3     4534     TIP3     H2       HT       0.417000       1.00800           0
     30938 TIP3     4535     TIP3     OH2      OT      -0.834000       15.9994           0
     30939 TIP3     4535     TIP3     H1       HT       0.417000       1.00800           0
     30940 TIP3     4535     TIP3     H2       HT       0.417000       1.00800           0
     30941 TIP3     4536     TIP3     OH2      OT      -0.834000       15.9994           0
     30942 TIP3     4536     TIP3     H1       HT       0.417000       1.00800           0
     30943 TIP3     4536     TIP3     H2       HT       0.417000       1.00800           0
     30944 TIP3     4537     TIP3     OH2      OT      -0.834000       15.9994           0
     30945 TIP3     4537     TIP3     H1       HT       0.417000       1.00800           0
     30946 TIP3     4537     TIP3     H2       HT       0.417000       1.00800           0
     30947 TIP3     4538     TIP3     OH2      OT      -0.834000       15.9994           0
     30948 TIP3     4538     TIP3     H1       HT       0.417000       1.00800           0
     30949 TIP3     4538     TIP3     H2       HT       0.417000       1.00800           0
     30950 TIP3     4539     TIP3     OH2      OT      -0.834000       15.9994           0
     30951 TIP3     4539     TIP3     H1       HT       0.417000       1.00800           0
     30952 TIP3     4539     TIP3     H2       HT       0.417000       1.00800           0
     30953 TIP3     4540     TIP3     OH2      OT      -0.834000       15.9994           0
     30954 TIP3     4540     TIP3     H1       HT       0.417000       1.00800           0
     30955 TIP3     4540     TIP3     H2       HT       0.417000       1.00800           0
     30956 TIP3     4541     TIP3     OH2      OT      -0.834000       15.9994           0
     30957 TIP3     4541     TIP3     H1       HT       0.417000       1.00800           0
     30958 TIP3     4541     TIP3     H2       HT       0.417000       1.00800           0
     30959 TIP3     4542     TIP3     OH2      OT      -0.834000       15.9994           0
     30960 TIP3     4542     TIP3     H1       HT       0.417000       1.00800           0
     30961 TIP3     4542     TIP3     H2       HT       0.417000       1.00800           0
     30962 TIP3     4543     TIP3     OH2      OT      -0.834000       15.9994           0
     30963 TIP3     4543     TIP3     H1       HT       0.417000       1.00800           0
     30964 TIP3     4543     TIP3     H2       HT       0.417000       1.00800           0
     30965 TIP3     4544     TIP3     OH2      OT      -0.834000       15.9994           0
     30966 TIP3     4544     TIP3     H1       HT       0.417000       1.00800           0
     30967 TIP3     4544     TIP3     H2       HT       0.417000       1.00800           0
     30968 TIP3     4545     TIP3     OH2      OT      -0.834000       15.9994           0
     30969 TIP3     4545     TIP3     H1       HT       0.417000       1.00800           0
     30970 TIP3     4545     TIP3     H2       HT       0.417000       1.00800           0
     30971 TIP3     4546     TIP3     OH2      OT      -0.834000       15.9994           0
     30972 TIP3     4546     TIP3     H1       HT       0.417000       1.00800           0
     30973 TIP3     4546     TIP3     H2       HT       0.417000       1.00800           0
     30974 TIP3     4547     TIP3     OH2      OT      -0.834000       15.9994           0
     30975 TIP3     4547     TIP3     H1       HT       0.417000       1.00800           0
     30976 TIP3     4547     TIP3     H2       HT       0.417000       1.00800           0
     30977 TIP3     4548     TIP3     OH2      OT      -0.834000       15.9994           0
     30978 TIP3     4548     TIP3     H1       HT       0.417000       1.00800           0
     30979 TIP3     4548     TIP3     H2       HT       0.417000       1.00800           0
     30980 TIP3     4549     TIP3     OH2      OT      -0.834000       15.9994           0
     30981 TIP3     4549     TIP3     H1       HT       0.417000       1.00800           0
     30982 TIP3     4549     TIP3     H2       HT       0.417000       1.00800           0
     30983 TIP3     4550     TIP3     OH2      OT      -0.834000       15.9994           0
     30984 TIP3     4550     TIP3     H1       HT       0.417000       1.00800           0
     30985 TIP3     4550     TIP3     H2       HT       0.417000       1.00800           0
     30986 TIP3     4551     TIP3     OH2      OT      -0.834000       15.9994           0
     30987 TIP3     4551     TIP3     H1       HT       0.417000       1.00800           0
     30988 TIP3     4551     TIP3     H2       HT       0.417000       1.00800           0
     30989 TIP3     4552     TIP3     OH2      OT      -0.834000       15.9994           0
     30990 TIP3     4552     TIP3     H1       HT       0.417000       1.00800           0
     30991 TIP3     4552     TIP3     H2       HT       0.417000       1.00800           0
     30992 TIP3     4553     TIP3     OH2      OT      -0.834000       15.9994           0
     30993 TIP3     4553     TIP3     H1       HT       0.417000       1.00800           0
     30994 TIP3     4553     TIP3     H2       HT       0.417000       1.00800           0
     30995 TIP3     4554     TIP3     OH2      OT      -0.834000       15.9994           0
     30996 TIP3     4554     TIP3     H1       HT       0.417000       1.00800           0
     30997 TIP3     4554     TIP3     H2       HT       0.417000       1.00800           0
     30998 TIP3     4555     TIP3     OH2      OT      -0.834000       15.9994           0
     30999 TIP3     4555     TIP3     H1       HT       0.417000       1.00800           0
     31000 TIP3     4555     TIP3     H2       HT       0.417000       1.00800           0
     31001 TIP3     4556     TIP3     OH2      OT      -0.834000       15.9994           0
     31002 TIP3     4556     TIP3     H1       HT       0.417000       1.00800           0
     31003 TIP3     4556     TIP3     H2       HT       0.417000       1.00800           0
     31004 TIP3     4557     TIP3     OH2      OT      -0.834000       15.9994           0
     31005 TIP3     4557     TIP3     H1       HT       0.417000       1.00800           0
     31006 TIP3     4557     TIP3     H2       HT       0.417000       1.00800           0
     31007 TIP3     4558     TIP3     OH2      OT      -0.834000       15.9994           0
     31008 TIP3     4558     TIP3     H1       HT       0.417000       1.00800           0
     31009 TIP3     4558     TIP3     H2       HT       0.417000       1.00800           0
     31010 TIP3     4559     TIP3     OH2      OT      -0.834000       15.9994           0
     31011 TIP3     4559     TIP3     H1       HT       0.417000       1.00800           0
     31012 TIP3     4559     TIP3     H2       HT       0.417000       1.00800           0
     31013 TIP3     4560     TIP3     OH2      OT      -0.834000       15.9994           0
     31014 TIP3     4560     TIP3     H1       HT       0.417000       1.00800           0
     31015 TIP3     4560     TIP3     H2       HT       0.417000       1.00800           0
     31016 TIP3     4561     TIP3     OH2      OT      -0.834000       15.9994           0
     31017 TIP3     4561     TIP3     H1       HT       0.417000       1.00800           0
     31018 TIP3     4561     TIP3     H2       HT       0.417000       1.00800           0
     31019 TIP3     4562     TIP3     OH2      OT      -0.834000       15.9994           0
     31020 TIP3     4562     TIP3     H1       HT       0.417000       1.00800           0
     31021 TIP3     4562     TIP3     H2       HT       0.417000       1.00800           0
     31022 TIP3     4563     TIP3     OH2      OT      -0.834000       15.9994           0
     31023 TIP3     4563     TIP3     H1       HT       0.417000       1.00800           0
     31024 TIP3     4563     TIP3     H2       HT       0.417000       1.00800           0
     31025 TIP3     4564     TIP3     OH2      OT      -0.834000       15.9994           0
     31026 TIP3     4564     TIP3     H1       HT       0.417000       1.00800           0
     31027 TIP3     4564     TIP3     H2       HT       0.417000       1.00800           0
     31028 TIP3     4565     TIP3     OH2      OT      -0.834000       15.9994           0
     31029 TIP3     4565     TIP3     H1       HT       0.417000       1.00800           0
     31030 TIP3     4565     TIP3     H2       HT       0.417000       1.00800           0
     31031 TIP3     4566     TIP3     OH2      OT      -0.834000       15.9994           0
     31032 TIP3     4566     TIP3     H1       HT       0.417000       1.00800           0
     31033 TIP3     4566     TIP3     H2       HT       0.417000       1.00800           0
     31034 TIP3     4567     TIP3     OH2      OT      -0.834000       15.9994           0
     31035 TIP3     4567     TIP3     H1       HT       0.417000       1.00800           0
     31036 TIP3     4567     TIP3     H2       HT       0.417000       1.00800           0
     31037 TIP3     4568     TIP3     OH2      OT      -0.834000       15.9994           0
     31038 TIP3     4568     TIP3     H1       HT       0.417000       1.00800           0
     31039 TIP3     4568     TIP3     H2       HT       0.417000       1.00800           0
     31040 TIP3     4569     TIP3     OH2      OT      -0.834000       15.9994           0
     31041 TIP3     4569     TIP3     H1       HT       0.417000       1.00800           0
     31042 TIP3     4569     TIP3     H2       HT       0.417000       1.00800           0
     31043 TIP3     4570     TIP3     OH2      OT      -0.834000       15.9994           0
     31044 TIP3     4570     TIP3     H1       HT       0.417000       1.00800           0
     31045 TIP3     4570     TIP3     H2       HT       0.417000       1.00800           0
     31046 TIP3     4571     TIP3     OH2      OT      -0.834000       15.9994           0
     31047 TIP3     4571     TIP3     H1       HT       0.417000       1.00800           0
     31048 TIP3     4571     TIP3     H2       HT       0.417000       1.00800           0
     31049 TIP3     4572     TIP3     OH2      OT      -0.834000       15.9994           0
     31050 TIP3     4572     TIP3     H1       HT       0.417000       1.00800           0
     31051 TIP3     4572     TIP3     H2       HT       0.417000       1.00800           0
     31052 TIP3     4573     TIP3     OH2      OT      -0.834000       15.9994           0
     31053 TIP3     4573     TIP3     H1       HT       0.417000       1.00800           0
     31054 TIP3     4573     TIP3     H2       HT       0.417000       1.00800           0
     31055 TIP3     4574     TIP3     OH2      OT      -0.834000       15.9994           0
     31056 TIP3     4574     TIP3     H1       HT       0.417000       1.00800           0
     31057 TIP3     4574     TIP3     H2       HT       0.417000       1.00800           0
     31058 TIP3     4575     TIP3     OH2      OT      -0.834000       15.9994           0
     31059 TIP3     4575     TIP3     H1       HT       0.417000       1.00800           0
     31060 TIP3     4575     TIP3     H2       HT       0.417000       1.00800           0
     31061 TIP3     4576     TIP3     OH2      OT      -0.834000       15.9994           0
     31062 TIP3     4576     TIP3     H1       HT       0.417000       1.00800           0
     31063 TIP3     4576     TIP3     H2       HT       0.417000       1.00800           0
     31064 TIP3     4577     TIP3     OH2      OT      -0.834000       15.9994           0
     31065 TIP3     4577     TIP3     H1       HT       0.417000       1.00800           0
     31066 TIP3     4577     TIP3     H2       HT       0.417000       1.00800           0
     31067 TIP3     4578     TIP3     OH2      OT      -0.834000       15.9994           0
     31068 TIP3     4578     TIP3     H1       HT       0.417000       1.00800           0
     31069 TIP3     4578     TIP3     H2       HT       0.417000       1.00800           0
     31070 TIP3     4579     TIP3     OH2      OT      -0.834000       15.9994           0
     31071 TIP3     4579     TIP3     H1       HT       0.417000       1.00800           0
     31072 TIP3     4579     TIP3     H2       HT       0.417000       1.00800           0
     31073 TIP3     4580     TIP3     OH2      OT      -0.834000       15.9994           0
     31074 TIP3     4580     TIP3     H1       HT       0.417000       1.00800           0
     31075 TIP3     4580     TIP3     H2       HT       0.417000       1.00800           0
     31076 TIP3     4581     TIP3     OH2      OT      -0.834000       15.9994           0
     31077 TIP3     4581     TIP3     H1       HT       0.417000       1.00800           0
     31078 TIP3     4581     TIP3     H2       HT       0.417000       1.00800           0
     31079 TIP3     4582     TIP3     OH2      OT      -0.834000       15.9994           0
     31080 TIP3     4582     TIP3     H1       HT       0.417000       1.00800           0
     31081 TIP3     4582     TIP3     H2       HT       0.417000       1.00800           0
     31082 TIP3     4583     TIP3     OH2      OT      -0.834000       15.9994           0
     31083 TIP3     4583     TIP3     H1       HT       0.417000       1.00800           0
     31084 TIP3     4583     TIP3     H2       HT       0.417000       1.00800           0
     31085 TIP3     4584     TIP3     OH2      OT      -0.834000       15.9994           0
     31086 TIP3     4584     TIP3     H1       HT       0.417000       1.00800           0
     31087 TIP3     4584     TIP3     H2       HT       0.417000       1.00800           0
     31088 TIP3     4585     TIP3     OH2      OT      -0.834000       15.9994           0
     31089 TIP3     4585     TIP3     H1       HT       0.417000       1.00800           0
     31090 TIP3     4585     TIP3     H2       HT       0.417000       1.00800           0
     31091 TIP3     4586     TIP3     OH2      OT      -0.834000       15.9994           0
     31092 TIP3     4586     TIP3     H1       HT       0.417000       1.00800           0
     31093 TIP3     4586     TIP3     H2       HT       0.417000       1.00800           0
     31094 TIP3     4587     TIP3     OH2      OT      -0.834000       15.9994           0
     31095 TIP3     4587     TIP3     H1       HT       0.417000       1.00800           0
     31096 TIP3     4587     TIP3     H2       HT       0.417000       1.00800           0
     31097 TIP3     4588     TIP3     OH2      OT      -0.834000       15.9994           0
     31098 TIP3     4588     TIP3     H1       HT       0.417000       1.00800           0
     31099 TIP3     4588     TIP3     H2       HT       0.417000       1.00800           0
     31100 TIP3     4589     TIP3     OH2      OT      -0.834000       15.9994           0
     31101 TIP3     4589     TIP3     H1       HT       0.417000       1.00800           0
     31102 TIP3     4589     TIP3     H2       HT       0.417000       1.00800           0
     31103 TIP3     4590     TIP3     OH2      OT      -0.834000       15.9994           0
     31104 TIP3     4590     TIP3     H1       HT       0.417000       1.00800           0
     31105 TIP3     4590     TIP3     H2       HT       0.417000       1.00800           0
     31106 TIP3     4591     TIP3     OH2      OT      -0.834000       15.9994           0
     31107 TIP3     4591     TIP3     H1       HT       0.417000       1.00800           0
     31108 TIP3     4591     TIP3     H2       HT       0.417000       1.00800           0
     31109 TIP3     4592     TIP3     OH2      OT      -0.834000       15.9994           0
     31110 TIP3     4592     TIP3     H1       HT       0.417000       1.00800           0
     31111 TIP3     4592     TIP3     H2       HT       0.417000       1.00800           0
     31112 TIP3     4593     TIP3     OH2      OT      -0.834000       15.9994           0
     31113 TIP3     4593     TIP3     H1       HT       0.417000       1.00800           0
     31114 TIP3     4593     TIP3     H2       HT       0.417000       1.00800           0
     31115 TIP3     4594     TIP3     OH2      OT      -0.834000       15.9994           0
     31116 TIP3     4594     TIP3     H1       HT       0.417000       1.00800           0
     31117 TIP3     4594     TIP3     H2       HT       0.417000       1.00800           0
     31118 TIP3     4595     TIP3     OH2      OT      -0.834000       15.9994           0
     31119 TIP3     4595     TIP3     H1       HT       0.417000       1.00800           0
     31120 TIP3     4595     TIP3     H2       HT       0.417000       1.00800           0
     31121 TIP3     4596     TIP3     OH2      OT      -0.834000       15.9994           0
     31122 TIP3     4596     TIP3     H1       HT       0.417000       1.00800           0
     31123 TIP3     4596     TIP3     H2       HT       0.417000       1.00800           0
     31124 TIP3     4597     TIP3     OH2      OT      -0.834000       15.9994           0
     31125 TIP3     4597     TIP3     H1       HT       0.417000       1.00800           0
     31126 TIP3     4597     TIP3     H2       HT       0.417000       1.00800           0
     31127 TIP3     4598     TIP3     OH2      OT      -0.834000       15.9994           0
     31128 TIP3     4598     TIP3     H1       HT       0.417000       1.00800           0
     31129 TIP3     4598     TIP3     H2       HT       0.417000       1.00800           0
     31130 TIP3     4599     TIP3     OH2      OT      -0.834000       15.9994           0
     31131 TIP3     4599     TIP3     H1       HT       0.417000       1.00800           0
     31132 TIP3     4599     TIP3     H2       HT       0.417000       1.00800           0
     31133 TIP3     4600     TIP3     OH2      OT      -0.834000       15.9994           0
     31134 TIP3     4600     TIP3     H1       HT       0.417000       1.00800           0
     31135 TIP3     4600     TIP3     H2       HT       0.417000       1.00800           0
     31136 TIP3     4601     TIP3     OH2      OT      -0.834000       15.9994           0
     31137 TIP3     4601     TIP3     H1       HT       0.417000       1.00800           0
     31138 TIP3     4601     TIP3     H2       HT       0.417000       1.00800           0
     31139 TIP3     4602     TIP3     OH2      OT      -0.834000       15.9994           0
     31140 TIP3     4602     TIP3     H1       HT       0.417000       1.00800           0
     31141 TIP3     4602     TIP3     H2       HT       0.417000       1.00800           0
     31142 TIP3     4603     TIP3     OH2      OT      -0.834000       15.9994           0
     31143 TIP3     4603     TIP3     H1       HT       0.417000       1.00800           0
     31144 TIP3     4603     TIP3     H2       HT       0.417000       1.00800           0
     31145 TIP3     4604     TIP3     OH2      OT      -0.834000       15.9994           0
     31146 TIP3     4604     TIP3     H1       HT       0.417000       1.00800           0
     31147 TIP3     4604     TIP3     H2       HT       0.417000       1.00800           0
     31148 TIP3     4605     TIP3     OH2      OT      -0.834000       15.9994           0
     31149 TIP3     4605     TIP3     H1       HT       0.417000       1.00800           0
     31150 TIP3     4605     TIP3     H2       HT       0.417000       1.00800           0
     31151 TIP3     4606     TIP3     OH2      OT      -0.834000       15.9994           0
     31152 TIP3     4606     TIP3     H1       HT       0.417000       1.00800           0
     31153 TIP3     4606     TIP3     H2       HT       0.417000       1.00800           0
     31154 TIP3     4607     TIP3     OH2      OT      -0.834000       15.9994           0
     31155 TIP3     4607     TIP3     H1       HT       0.417000       1.00800           0
     31156 TIP3     4607     TIP3     H2       HT       0.417000       1.00800           0
     31157 TIP3     4608     TIP3     OH2      OT      -0.834000       15.9994           0
     31158 TIP3     4608     TIP3     H1       HT       0.417000       1.00800           0
     31159 TIP3     4608     TIP3     H2       HT       0.417000       1.00800           0
     31160 TIP3     4609     TIP3     OH2      OT      -0.834000       15.9994           0
     31161 TIP3     4609     TIP3     H1       HT       0.417000       1.00800           0
     31162 TIP3     4609     TIP3     H2       HT       0.417000       1.00800           0
     31163 TIP3     4610     TIP3     OH2      OT      -0.834000       15.9994           0
     31164 TIP3     4610     TIP3     H1       HT       0.417000       1.00800           0
     31165 TIP3     4610     TIP3     H2       HT       0.417000       1.00800           0
     31166 TIP3     4611     TIP3     OH2      OT      -0.834000       15.9994           0
     31167 TIP3     4611     TIP3     H1       HT       0.417000       1.00800           0
     31168 TIP3     4611     TIP3     H2       HT       0.417000       1.00800           0
     31169 TIP3     4612     TIP3     OH2      OT      -0.834000       15.9994           0
     31170 TIP3     4612     TIP3     H1       HT       0.417000       1.00800           0
     31171 TIP3     4612     TIP3     H2       HT       0.417000       1.00800           0
     31172 TIP3     4613     TIP3     OH2      OT      -0.834000       15.9994           0
     31173 TIP3     4613     TIP3     H1       HT       0.417000       1.00800           0
     31174 TIP3     4613     TIP3     H2       HT       0.417000       1.00800           0
     31175 TIP3     4614     TIP3     OH2      OT      -0.834000       15.9994           0
     31176 TIP3     4614     TIP3     H1       HT       0.417000       1.00800           0
     31177 TIP3     4614     TIP3     H2       HT       0.417000       1.00800           0
     31178 TIP3     4615     TIP3     OH2      OT      -0.834000       15.9994           0
     31179 TIP3     4615     TIP3     H1       HT       0.417000       1.00800           0
     31180 TIP3     4615     TIP3     H2       HT       0.417000       1.00800           0
     31181 TIP3     4616     TIP3     OH2      OT      -0.834000       15.9994           0
     31182 TIP3     4616     TIP3     H1       HT       0.417000       1.00800           0
     31183 TIP3     4616     TIP3     H2       HT       0.417000       1.00800           0
     31184 TIP3     4617     TIP3     OH2      OT      -0.834000       15.9994           0
     31185 TIP3     4617     TIP3     H1       HT       0.417000       1.00800           0
     31186 TIP3     4617     TIP3     H2       HT       0.417000       1.00800           0
     31187 TIP3     4618     TIP3     OH2      OT      -0.834000       15.9994           0
     31188 TIP3     4618     TIP3     H1       HT       0.417000       1.00800           0
     31189 TIP3     4618     TIP3     H2       HT       0.417000       1.00800           0
     31190 TIP3     4619     TIP3     OH2      OT      -0.834000       15.9994           0
     31191 TIP3     4619     TIP3     H1       HT       0.417000       1.00800           0
     31192 TIP3     4619     TIP3     H2       HT       0.417000       1.00800           0
     31193 TIP3     4620     TIP3     OH2      OT      -0.834000       15.9994           0
     31194 TIP3     4620     TIP3     H1       HT       0.417000       1.00800           0
     31195 TIP3     4620     TIP3     H2       HT       0.417000       1.00800           0
     31196 TIP3     4621     TIP3     OH2      OT      -0.834000       15.9994           0
     31197 TIP3     4621     TIP3     H1       HT       0.417000       1.00800           0
     31198 TIP3     4621     TIP3     H2       HT       0.417000       1.00800           0
     31199 TIP3     4622     TIP3     OH2      OT      -0.834000       15.9994           0
     31200 TIP3     4622     TIP3     H1       HT       0.417000       1.00800           0
     31201 TIP3     4622     TIP3     H2       HT       0.417000       1.00800           0
     31202 TIP3     4623     TIP3     OH2      OT      -0.834000       15.9994           0
     31203 TIP3     4623     TIP3     H1       HT       0.417000       1.00800           0
     31204 TIP3     4623     TIP3     H2       HT       0.417000       1.00800           0
     31205 TIP3     4624     TIP3     OH2      OT      -0.834000       15.9994           0
     31206 TIP3     4624     TIP3     H1       HT       0.417000       1.00800           0
     31207 TIP3     4624     TIP3     H2       HT       0.417000       1.00800           0
     31208 TIP3     4625     TIP3     OH2      OT      -0.834000       15.9994           0
     31209 TIP3     4625     TIP3     H1       HT       0.417000       1.00800           0
     31210 TIP3     4625     TIP3     H2       HT       0.417000       1.00800           0
     31211 TIP3     4626     TIP3     OH2      OT      -0.834000       15.9994           0
     31212 TIP3     4626     TIP3     H1       HT       0.417000       1.00800           0
     31213 TIP3     4626     TIP3     H2       HT       0.417000       1.00800           0
     31214 TIP3     4627     TIP3     OH2      OT      -0.834000       15.9994           0
     31215 TIP3     4627     TIP3     H1       HT       0.417000       1.00800           0
     31216 TIP3     4627     TIP3     H2       HT       0.417000       1.00800           0
     31217 TIP3     4628     TIP3     OH2      OT      -0.834000       15.9994           0
     31218 TIP3     4628     TIP3     H1       HT       0.417000       1.00800           0
     31219 TIP3     4628     TIP3     H2       HT       0.417000       1.00800           0
     31220 TIP3     4629     TIP3     OH2      OT      -0.834000       15.9994           0
     31221 TIP3     4629     TIP3     H1       HT       0.417000       1.00800           0
     31222 TIP3     4629     TIP3     H2       HT       0.417000       1.00800           0
     31223 TIP3     4630     TIP3     OH2      OT      -0.834000       15.9994           0
     31224 TIP3     4630     TIP3     H1       HT       0.417000       1.00800           0
     31225 TIP3     4630     TIP3     H2       HT       0.417000       1.00800           0
     31226 TIP3     4631     TIP3     OH2      OT      -0.834000       15.9994           0
     31227 TIP3     4631     TIP3     H1       HT       0.417000       1.00800           0
     31228 TIP3     4631     TIP3     H2       HT       0.417000       1.00800           0
     31229 TIP3     4632     TIP3     OH2      OT      -0.834000       15.9994           0
     31230 TIP3     4632     TIP3     H1       HT       0.417000       1.00800           0
     31231 TIP3     4632     TIP3     H2       HT       0.417000       1.00800           0
     31232 TIP3     4633     TIP3     OH2      OT      -0.834000       15.9994           0
     31233 TIP3     4633     TIP3     H1       HT       0.417000       1.00800           0
     31234 TIP3     4633     TIP3     H2       HT       0.417000       1.00800           0
     31235 TIP3     4634     TIP3     OH2      OT      -0.834000       15.9994           0
     31236 TIP3     4634     TIP3     H1       HT       0.417000       1.00800           0
     31237 TIP3     4634     TIP3     H2       HT       0.417000       1.00800           0
     31238 TIP3     4635     TIP3     OH2      OT      -0.834000       15.9994           0
     31239 TIP3     4635     TIP3     H1       HT       0.417000       1.00800           0
     31240 TIP3     4635     TIP3     H2       HT       0.417000       1.00800           0
     31241 TIP3     4636     TIP3     OH2      OT      -0.834000       15.9994           0
     31242 TIP3     4636     TIP3     H1       HT       0.417000       1.00800           0
     31243 TIP3     4636     TIP3     H2       HT       0.417000       1.00800           0
     31244 TIP3     4637     TIP3     OH2      OT      -0.834000       15.9994           0
     31245 TIP3     4637     TIP3     H1       HT       0.417000       1.00800           0
     31246 TIP3     4637     TIP3     H2       HT       0.417000       1.00800           0
     31247 TIP3     4638     TIP3     OH2      OT      -0.834000       15.9994           0
     31248 TIP3     4638     TIP3     H1       HT       0.417000       1.00800           0
     31249 TIP3     4638     TIP3     H2       HT       0.417000       1.00800           0
     31250 TIP3     4639     TIP3     OH2      OT      -0.834000       15.9994           0
     31251 TIP3     4639     TIP3     H1       HT       0.417000       1.00800           0
     31252 TIP3     4639     TIP3     H2       HT       0.417000       1.00800           0
     31253 TIP3     4640     TIP3     OH2      OT      -0.834000       15.9994           0
     31254 TIP3     4640     TIP3     H1       HT       0.417000       1.00800           0
     31255 TIP3     4640     TIP3     H2       HT       0.417000       1.00800           0
     31256 TIP3     4641     TIP3     OH2      OT      -0.834000       15.9994           0
     31257 TIP3     4641     TIP3     H1       HT       0.417000       1.00800           0
     31258 TIP3     4641     TIP3     H2       HT       0.417000       1.00800           0
     31259 TIP3     4642     TIP3     OH2      OT      -0.834000       15.9994           0
     31260 TIP3     4642     TIP3     H1       HT       0.417000       1.00800           0
     31261 TIP3     4642     TIP3     H2       HT       0.417000       1.00800           0
     31262 TIP3     4643     TIP3     OH2      OT      -0.834000       15.9994           0
     31263 TIP3     4643     TIP3     H1       HT       0.417000       1.00800           0
     31264 TIP3     4643     TIP3     H2       HT       0.417000       1.00800           0
     31265 TIP3     4644     TIP3     OH2      OT      -0.834000       15.9994           0
     31266 TIP3     4644     TIP3     H1       HT       0.417000       1.00800           0
     31267 TIP3     4644     TIP3     H2       HT       0.417000       1.00800           0
     31268 TIP3     4645     TIP3     OH2      OT      -0.834000       15.9994           0
     31269 TIP3     4645     TIP3     H1       HT       0.417000       1.00800           0
     31270 TIP3     4645     TIP3     H2       HT       0.417000       1.00800           0
     31271 TIP3     4646     TIP3     OH2      OT      -0.834000       15.9994           0
     31272 TIP3     4646     TIP3     H1       HT       0.417000       1.00800           0
     31273 TIP3     4646     TIP3     H2       HT       0.417000       1.00800           0
     31274 TIP3     4647     TIP3     OH2      OT      -0.834000       15.9994           0
     31275 TIP3     4647     TIP3     H1       HT       0.417000       1.00800           0
     31276 TIP3     4647     TIP3     H2       HT       0.417000       1.00800           0
     31277 TIP3     4648     TIP3     OH2      OT      -0.834000       15.9994           0
     31278 TIP3     4648     TIP3     H1       HT       0.417000       1.00800           0
     31279 TIP3     4648     TIP3     H2       HT       0.417000       1.00800           0
     31280 TIP3     4649     TIP3     OH2      OT      -0.834000       15.9994           0
     31281 TIP3     4649     TIP3     H1       HT       0.417000       1.00800           0
     31282 TIP3     4649     TIP3     H2       HT       0.417000       1.00800           0
     31283 TIP3     4650     TIP3     OH2      OT      -0.834000       15.9994           0
     31284 TIP3     4650     TIP3     H1       HT       0.417000       1.00800           0
     31285 TIP3     4650     TIP3     H2       HT       0.417000       1.00800           0
     31286 TIP3     4651     TIP3     OH2      OT      -0.834000       15.9994           0
     31287 TIP3     4651     TIP3     H1       HT       0.417000       1.00800           0
     31288 TIP3     4651     TIP3     H2       HT       0.417000       1.00800           0
     31289 TIP3     4652     TIP3     OH2      OT      -0.834000       15.9994           0
     31290 TIP3     4652     TIP3     H1       HT       0.417000       1.00800           0
     31291 TIP3     4652     TIP3     H2       HT       0.417000       1.00800           0
     31292 TIP3     4653     TIP3     OH2      OT      -0.834000       15.9994           0
     31293 TIP3     4653     TIP3     H1       HT       0.417000       1.00800           0
     31294 TIP3     4653     TIP3     H2       HT       0.417000       1.00800           0
     31295 TIP3     4654     TIP3     OH2      OT      -0.834000       15.9994           0
     31296 TIP3     4654     TIP3     H1       HT       0.417000       1.00800           0
     31297 TIP3     4654     TIP3     H2       HT       0.417000       1.00800           0
     31298 TIP3     4655     TIP3     OH2      OT      -0.834000       15.9994           0
     31299 TIP3     4655     TIP3     H1       HT       0.417000       1.00800           0
     31300 TIP3     4655     TIP3     H2       HT       0.417000       1.00800           0
     31301 TIP3     4656     TIP3     OH2      OT      -0.834000       15.9994           0
     31302 TIP3     4656     TIP3     H1       HT       0.417000       1.00800           0
     31303 TIP3     4656     TIP3     H2       HT       0.417000       1.00800           0
     31304 TIP3     4657     TIP3     OH2      OT      -0.834000       15.9994           0
     31305 TIP3     4657     TIP3     H1       HT       0.417000       1.00800           0
     31306 TIP3     4657     TIP3     H2       HT       0.417000       1.00800           0
     31307 TIP3     4658     TIP3     OH2      OT      -0.834000       15.9994           0
     31308 TIP3     4658     TIP3     H1       HT       0.417000       1.00800           0
     31309 TIP3     4658     TIP3     H2       HT       0.417000       1.00800           0
     31310 TIP3     4659     TIP3     OH2      OT      -0.834000       15.9994           0
     31311 TIP3     4659     TIP3     H1       HT       0.417000       1.00800           0
     31312 TIP3     4659     TIP3     H2       HT       0.417000       1.00800           0
     31313 TIP3     4660     TIP3     OH2      OT      -0.834000       15.9994           0
     31314 TIP3     4660     TIP3     H1       HT       0.417000       1.00800           0
     31315 TIP3     4660     TIP3     H2       HT       0.417000       1.00800           0
     31316 TIP3     4661     TIP3     OH2      OT      -0.834000       15.9994           0
     31317 TIP3     4661     TIP3     H1       HT       0.417000       1.00800           0
     31318 TIP3     4661     TIP3     H2       HT       0.417000       1.00800           0
     31319 TIP3     4662     TIP3     OH2      OT      -0.834000       15.9994           0
     31320 TIP3     4662     TIP3     H1       HT       0.417000       1.00800           0
     31321 TIP3     4662     TIP3     H2       HT       0.417000       1.00800           0
     31322 TIP3     4663     TIP3     OH2      OT      -0.834000       15.9994           0
     31323 TIP3     4663     TIP3     H1       HT       0.417000       1.00800           0
     31324 TIP3     4663     TIP3     H2       HT       0.417000       1.00800           0
     31325 TIP3     4664     TIP3     OH2      OT      -0.834000       15.9994           0
     31326 TIP3     4664     TIP3     H1       HT       0.417000       1.00800           0
     31327 TIP3     4664     TIP3     H2       HT       0.417000       1.00800           0
     31328 TIP3     4665     TIP3     OH2      OT      -0.834000       15.9994           0
     31329 TIP3     4665     TIP3     H1       HT       0.417000       1.00800           0
     31330 TIP3     4665     TIP3     H2       HT       0.417000       1.00800           0
     31331 TIP3     4666     TIP3     OH2      OT      -0.834000       15.9994           0
     31332 TIP3     4666     TIP3     H1       HT       0.417000       1.00800           0
     31333 TIP3     4666     TIP3     H2       HT       0.417000       1.00800           0
     31334 TIP3     4667     TIP3     OH2      OT      -0.834000       15.9994           0
     31335 TIP3     4667     TIP3     H1       HT       0.417000       1.00800           0
     31336 TIP3     4667     TIP3     H2       HT       0.417000       1.00800           0
     31337 TIP3     4668     TIP3     OH2      OT      -0.834000       15.9994           0
     31338 TIP3     4668     TIP3     H1       HT       0.417000       1.00800           0
     31339 TIP3     4668     TIP3     H2       HT       0.417000       1.00800           0
     31340 TIP3     4669     TIP3     OH2      OT      -0.834000       15.9994           0
     31341 TIP3     4669     TIP3     H1       HT       0.417000       1.00800           0
     31342 TIP3     4669     TIP3     H2       HT       0.417000       1.00800           0
     31343 TIP3     4670     TIP3     OH2      OT      -0.834000       15.9994           0
     31344 TIP3     4670     TIP3     H1       HT       0.417000       1.00800           0
     31345 TIP3     4670     TIP3     H2       HT       0.417000       1.00800           0
     31346 TIP3     4671     TIP3     OH2      OT      -0.834000       15.9994           0
     31347 TIP3     4671     TIP3     H1       HT       0.417000       1.00800           0
     31348 TIP3     4671     TIP3     H2       HT       0.417000       1.00800           0
     31349 TIP3     4672     TIP3     OH2      OT      -0.834000       15.9994           0
     31350 TIP3     4672     TIP3     H1       HT       0.417000       1.00800           0
     31351 TIP3     4672     TIP3     H2       HT       0.417000       1.00800           0
     31352 TIP3     4673     TIP3     OH2      OT      -0.834000       15.9994           0
     31353 TIP3     4673     TIP3     H1       HT       0.417000       1.00800           0
     31354 TIP3     4673     TIP3     H2       HT       0.417000       1.00800           0
     31355 TIP3     4674     TIP3     OH2      OT      -0.834000       15.9994           0
     31356 TIP3     4674     TIP3     H1       HT       0.417000       1.00800           0
     31357 TIP3     4674     TIP3     H2       HT       0.417000       1.00800           0
     31358 TIP3     4675     TIP3     OH2      OT      -0.834000       15.9994           0
     31359 TIP3     4675     TIP3     H1       HT       0.417000       1.00800           0
     31360 TIP3     4675     TIP3     H2       HT       0.417000       1.00800           0
     31361 TIP3     4676     TIP3     OH2      OT      -0.834000       15.9994           0
     31362 TIP3     4676     TIP3     H1       HT       0.417000       1.00800           0
     31363 TIP3     4676     TIP3     H2       HT       0.417000       1.00800           0
     31364 TIP3     4677     TIP3     OH2      OT      -0.834000       15.9994           0
     31365 TIP3     4677     TIP3     H1       HT       0.417000       1.00800           0
     31366 TIP3     4677     TIP3     H2       HT       0.417000       1.00800           0
     31367 TIP3     4678     TIP3     OH2      OT      -0.834000       15.9994           0
     31368 TIP3     4678     TIP3     H1       HT       0.417000       1.00800           0
     31369 TIP3     4678     TIP3     H2       HT       0.417000       1.00800           0
     31370 TIP3     4679     TIP3     OH2      OT      -0.834000       15.9994           0
     31371 TIP3     4679     TIP3     H1       HT       0.417000       1.00800           0
     31372 TIP3     4679     TIP3     H2       HT       0.417000       1.00800           0
     31373 TIP3     4680     TIP3     OH2      OT      -0.834000       15.9994           0
     31374 TIP3     4680     TIP3     H1       HT       0.417000       1.00800           0
     31375 TIP3     4680     TIP3     H2       HT       0.417000       1.00800           0
     31376 TIP3     4681     TIP3     OH2      OT      -0.834000       15.9994           0
     31377 TIP3     4681     TIP3     H1       HT       0.417000       1.00800           0
     31378 TIP3     4681     TIP3     H2       HT       0.417000       1.00800           0
     31379 TIP3     4682     TIP3     OH2      OT      -0.834000       15.9994           0
     31380 TIP3     4682     TIP3     H1       HT       0.417000       1.00800           0
     31381 TIP3     4682     TIP3     H2       HT       0.417000       1.00800           0
     31382 TIP3     4683     TIP3     OH2      OT      -0.834000       15.9994           0
     31383 TIP3     4683     TIP3     H1       HT       0.417000       1.00800           0
     31384 TIP3     4683     TIP3     H2       HT       0.417000       1.00800           0
     31385 TIP3     4684     TIP3     OH2      OT      -0.834000       15.9994           0
     31386 TIP3     4684     TIP3     H1       HT       0.417000       1.00800           0
     31387 TIP3     4684     TIP3     H2       HT       0.417000       1.00800           0
     31388 TIP3     4685     TIP3     OH2      OT      -0.834000       15.9994           0
     31389 TIP3     4685     TIP3     H1       HT       0.417000       1.00800           0
     31390 TIP3     4685     TIP3     H2       HT       0.417000       1.00800           0
     31391 TIP3     4686     TIP3     OH2      OT      -0.834000       15.9994           0
     31392 TIP3     4686     TIP3     H1       HT       0.417000       1.00800           0
     31393 TIP3     4686     TIP3     H2       HT       0.417000       1.00800           0
     31394 TIP3     4687     TIP3     OH2      OT      -0.834000       15.9994           0
     31395 TIP3     4687     TIP3     H1       HT       0.417000       1.00800           0
     31396 TIP3     4687     TIP3     H2       HT       0.417000       1.00800           0
     31397 TIP3     4688     TIP3     OH2      OT      -0.834000       15.9994           0
     31398 TIP3     4688     TIP3     H1       HT       0.417000       1.00800           0
     31399 TIP3     4688     TIP3     H2       HT       0.417000       1.00800           0
     31400 TIP3     4689     TIP3     OH2      OT      -0.834000       15.9994           0
     31401 TIP3     4689     TIP3     H1       HT       0.417000       1.00800           0
     31402 TIP3     4689     TIP3     H2       HT       0.417000       1.00800           0
     31403 TIP3     4690     TIP3     OH2      OT      -0.834000       15.9994           0
     31404 TIP3     4690     TIP3     H1       HT       0.417000       1.00800           0
     31405 TIP3     4690     TIP3     H2       HT       0.417000       1.00800           0
     31406 TIP3     4691     TIP3     OH2      OT      -0.834000       15.9994           0
     31407 TIP3     4691     TIP3     H1       HT       0.417000       1.00800           0
     31408 TIP3     4691     TIP3     H2       HT       0.417000       1.00800           0
     31409 TIP3     4692     TIP3     OH2      OT      -0.834000       15.9994           0
     31410 TIP3     4692     TIP3     H1       HT       0.417000       1.00800           0
     31411 TIP3     4692     TIP3     H2       HT       0.417000       1.00800           0
     31412 TIP3     4693     TIP3     OH2      OT      -0.834000       15.9994           0
     31413 TIP3     4693     TIP3     H1       HT       0.417000       1.00800           0
     31414 TIP3     4693     TIP3     H2       HT       0.417000       1.00800           0
     31415 TIP3     4694     TIP3     OH2      OT      -0.834000       15.9994           0
     31416 TIP3     4694     TIP3     H1       HT       0.417000       1.00800           0
     31417 TIP3     4694     TIP3     H2       HT       0.417000       1.00800           0
     31418 TIP3     4695     TIP3     OH2      OT      -0.834000       15.9994           0
     31419 TIP3     4695     TIP3     H1       HT       0.417000       1.00800           0
     31420 TIP3     4695     TIP3     H2       HT       0.417000       1.00800           0
     31421 TIP3     4696     TIP3     OH2      OT      -0.834000       15.9994           0
     31422 TIP3     4696     TIP3     H1       HT       0.417000       1.00800           0
     31423 TIP3     4696     TIP3     H2       HT       0.417000       1.00800           0
     31424 TIP3     4697     TIP3     OH2      OT      -0.834000       15.9994           0
     31425 TIP3     4697     TIP3     H1       HT       0.417000       1.00800           0
     31426 TIP3     4697     TIP3     H2       HT       0.417000       1.00800           0
     31427 TIP3     4698     TIP3     OH2      OT      -0.834000       15.9994           0
     31428 TIP3     4698     TIP3     H1       HT       0.417000       1.00800           0
     31429 TIP3     4698     TIP3     H2       HT       0.417000       1.00800           0
     31430 TIP3     4699     TIP3     OH2      OT      -0.834000       15.9994           0
     31431 TIP3     4699     TIP3     H1       HT       0.417000       1.00800           0
     31432 TIP3     4699     TIP3     H2       HT       0.417000       1.00800           0
     31433 TIP3     4700     TIP3     OH2      OT      -0.834000       15.9994           0
     31434 TIP3     4700     TIP3     H1       HT       0.417000       1.00800           0
     31435 TIP3     4700     TIP3     H2       HT       0.417000       1.00800           0
     31436 TIP3     4701     TIP3     OH2      OT      -0.834000       15.9994           0
     31437 TIP3     4701     TIP3     H1       HT       0.417000       1.00800           0
     31438 TIP3     4701     TIP3     H2       HT       0.417000       1.00800           0
     31439 TIP3     4702     TIP3     OH2      OT      -0.834000       15.9994           0
     31440 TIP3     4702     TIP3     H1       HT       0.417000       1.00800           0
     31441 TIP3     4702     TIP3     H2       HT       0.417000       1.00800           0
     31442 TIP3     4703     TIP3     OH2      OT      -0.834000       15.9994           0
     31443 TIP3     4703     TIP3     H1       HT       0.417000       1.00800           0
     31444 TIP3     4703     TIP3     H2       HT       0.417000       1.00800           0
     31445 TIP3     4704     TIP3     OH2      OT      -0.834000       15.9994           0
     31446 TIP3     4704     TIP3     H1       HT       0.417000       1.00800           0
     31447 TIP3     4704     TIP3     H2       HT       0.417000       1.00800           0
     31448 TIP3     4705     TIP3     OH2      OT      -0.834000       15.9994           0
     31449 TIP3     4705     TIP3     H1       HT       0.417000       1.00800           0
     31450 TIP3     4705     TIP3     H2       HT       0.417000       1.00800           0
     31451 TIP3     4706     TIP3     OH2      OT      -0.834000       15.9994           0
     31452 TIP3     4706     TIP3     H1       HT       0.417000       1.00800           0
     31453 TIP3     4706     TIP3     H2       HT       0.417000       1.00800           0
     31454 TIP3     4707     TIP3     OH2      OT      -0.834000       15.9994           0
     31455 TIP3     4707     TIP3     H1       HT       0.417000       1.00800           0
     31456 TIP3     4707     TIP3     H2       HT       0.417000       1.00800           0
     31457 TIP3     4708     TIP3     OH2      OT      -0.834000       15.9994           0
     31458 TIP3     4708     TIP3     H1       HT       0.417000       1.00800           0
     31459 TIP3     4708     TIP3     H2       HT       0.417000       1.00800           0
     31460 TIP3     4709     TIP3     OH2      OT      -0.834000       15.9994           0
     31461 TIP3     4709     TIP3     H1       HT       0.417000       1.00800           0
     31462 TIP3     4709     TIP3     H2       HT       0.417000       1.00800           0
     31463 TIP3     4710     TIP3     OH2      OT      -0.834000       15.9994           0
     31464 TIP3     4710     TIP3     H1       HT       0.417000       1.00800           0
     31465 TIP3     4710     TIP3     H2       HT       0.417000       1.00800           0
     31466 TIP3     4711     TIP3     OH2      OT      -0.834000       15.9994           0
     31467 TIP3     4711     TIP3     H1       HT       0.417000       1.00800           0
     31468 TIP3     4711     TIP3     H2       HT       0.417000       1.00800           0
     31469 TIP3     4712     TIP3     OH2      OT      -0.834000       15.9994           0
     31470 TIP3     4712     TIP3     H1       HT       0.417000       1.00800           0
     31471 TIP3     4712     TIP3     H2       HT       0.417000       1.00800           0
     31472 TIP3     4713     TIP3     OH2      OT      -0.834000       15.9994           0
     31473 TIP3     4713     TIP3     H1       HT       0.417000       1.00800           0
     31474 TIP3     4713     TIP3     H2       HT       0.417000       1.00800           0
     31475 TIP3     4714     TIP3     OH2      OT      -0.834000       15.9994           0
     31476 TIP3     4714     TIP3     H1       HT       0.417000       1.00800           0
     31477 TIP3     4714     TIP3     H2       HT       0.417000       1.00800           0
     31478 TIP3     4715     TIP3     OH2      OT      -0.834000       15.9994           0
     31479 TIP3     4715     TIP3     H1       HT       0.417000       1.00800           0
     31480 TIP3     4715     TIP3     H2       HT       0.417000       1.00800           0
     31481 TIP3     4716     TIP3     OH2      OT      -0.834000       15.9994           0
     31482 TIP3     4716     TIP3     H1       HT       0.417000       1.00800           0
     31483 TIP3     4716     TIP3     H2       HT       0.417000       1.00800           0
     31484 TIP3     4717     TIP3     OH2      OT      -0.834000       15.9994           0
     31485 TIP3     4717     TIP3     H1       HT       0.417000       1.00800           0
     31486 TIP3     4717     TIP3     H2       HT       0.417000       1.00800           0
     31487 TIP3     4718     TIP3     OH2      OT      -0.834000       15.9994           0
     31488 TIP3     4718     TIP3     H1       HT       0.417000       1.00800           0
     31489 TIP3     4718     TIP3     H2       HT       0.417000       1.00800           0
     31490 TIP3     4719     TIP3     OH2      OT      -0.834000       15.9994           0
     31491 TIP3     4719     TIP3     H1       HT       0.417000       1.00800           0
     31492 TIP3     4719     TIP3     H2       HT       0.417000       1.00800           0
     31493 TIP3     4720     TIP3     OH2      OT      -0.834000       15.9994           0
     31494 TIP3     4720     TIP3     H1       HT       0.417000       1.00800           0
     31495 TIP3     4720     TIP3     H2       HT       0.417000       1.00800           0
     31496 TIP3     4721     TIP3     OH2      OT      -0.834000       15.9994           0
     31497 TIP3     4721     TIP3     H1       HT       0.417000       1.00800           0
     31498 TIP3     4721     TIP3     H2       HT       0.417000       1.00800           0
     31499 TIP3     4722     TIP3     OH2      OT      -0.834000       15.9994           0
     31500 TIP3     4722     TIP3     H1       HT       0.417000       1.00800           0
     31501 TIP3     4722     TIP3     H2       HT       0.417000       1.00800           0
     31502 TIP3     4723     TIP3     OH2      OT      -0.834000       15.9994           0
     31503 TIP3     4723     TIP3     H1       HT       0.417000       1.00800           0
     31504 TIP3     4723     TIP3     H2       HT       0.417000       1.00800           0
     31505 TIP3     4724     TIP3     OH2      OT      -0.834000       15.9994           0
     31506 TIP3     4724     TIP3     H1       HT       0.417000       1.00800           0
     31507 TIP3     4724     TIP3     H2       HT       0.417000       1.00800           0
     31508 TIP3     4725     TIP3     OH2      OT      -0.834000       15.9994           0
     31509 TIP3     4725     TIP3     H1       HT       0.417000       1.00800           0
     31510 TIP3     4725     TIP3     H2       HT       0.417000       1.00800           0
     31511 TIP3     4726     TIP3     OH2      OT      -0.834000       15.9994           0
     31512 TIP3     4726     TIP3     H1       HT       0.417000       1.00800           0
     31513 TIP3     4726     TIP3     H2       HT       0.417000       1.00800           0
     31514 TIP3     4727     TIP3     OH2      OT      -0.834000       15.9994           0
     31515 TIP3     4727     TIP3     H1       HT       0.417000       1.00800           0
     31516 TIP3     4727     TIP3     H2       HT       0.417000       1.00800           0
     31517 TIP3     4728     TIP3     OH2      OT      -0.834000       15.9994           0
     31518 TIP3     4728     TIP3     H1       HT       0.417000       1.00800           0
     31519 TIP3     4728     TIP3     H2       HT       0.417000       1.00800           0
     31520 TIP3     4729     TIP3     OH2      OT      -0.834000       15.9994           0
     31521 TIP3     4729     TIP3     H1       HT       0.417000       1.00800           0
     31522 TIP3     4729     TIP3     H2       HT       0.417000       1.00800           0
     31523 TIP3     4730     TIP3     OH2      OT      -0.834000       15.9994           0
     31524 TIP3     4730     TIP3     H1       HT       0.417000       1.00800           0
     31525 TIP3     4730     TIP3     H2       HT       0.417000       1.00800           0
     31526 TIP3     4731     TIP3     OH2      OT      -0.834000       15.9994           0
     31527 TIP3     4731     TIP3     H1       HT       0.417000       1.00800           0
     31528 TIP3     4731     TIP3     H2       HT       0.417000       1.00800           0
     31529 TIP3     4732     TIP3     OH2      OT      -0.834000       15.9994           0
     31530 TIP3     4732     TIP3     H1       HT       0.417000       1.00800           0
     31531 TIP3     4732     TIP3     H2       HT       0.417000       1.00800           0
     31532 TIP3     4733     TIP3     OH2      OT      -0.834000       15.9994           0
     31533 TIP3     4733     TIP3     H1       HT       0.417000       1.00800           0
     31534 TIP3     4733     TIP3     H2       HT       0.417000       1.00800           0
     31535 TIP3     4734     TIP3     OH2      OT      -0.834000       15.9994           0
     31536 TIP3     4734     TIP3     H1       HT       0.417000       1.00800           0
     31537 TIP3     4734     TIP3     H2       HT       0.417000       1.00800           0
     31538 TIP3     4735     TIP3     OH2      OT      -0.834000       15.9994           0
     31539 TIP3     4735     TIP3     H1       HT       0.417000       1.00800           0
     31540 TIP3     4735     TIP3     H2       HT       0.417000       1.00800           0
     31541 TIP3     4736     TIP3     OH2      OT      -0.834000       15.9994           0
     31542 TIP3     4736     TIP3     H1       HT       0.417000       1.00800           0
     31543 TIP3     4736     TIP3     H2       HT       0.417000       1.00800           0
     31544 TIP3     4737     TIP3     OH2      OT      -0.834000       15.9994           0
     31545 TIP3     4737     TIP3     H1       HT       0.417000       1.00800           0
     31546 TIP3     4737     TIP3     H2       HT       0.417000       1.00800           0
     31547 TIP3     4738     TIP3     OH2      OT      -0.834000       15.9994           0
     31548 TIP3     4738     TIP3     H1       HT       0.417000       1.00800           0
     31549 TIP3     4738     TIP3     H2       HT       0.417000       1.00800           0
     31550 TIP3     4739     TIP3     OH2      OT      -0.834000       15.9994           0
     31551 TIP3     4739     TIP3     H1       HT       0.417000       1.00800           0
     31552 TIP3     4739     TIP3     H2       HT       0.417000       1.00800           0
     31553 TIP3     4740     TIP3     OH2      OT      -0.834000       15.9994           0
     31554 TIP3     4740     TIP3     H1       HT       0.417000       1.00800           0
     31555 TIP3     4740     TIP3     H2       HT       0.417000       1.00800           0
     31556 TIP3     4741     TIP3     OH2      OT      -0.834000       15.9994           0
     31557 TIP3     4741     TIP3     H1       HT       0.417000       1.00800           0
     31558 TIP3     4741     TIP3     H2       HT       0.417000       1.00800           0
     31559 TIP3     4742     TIP3     OH2      OT      -0.834000       15.9994           0
     31560 TIP3     4742     TIP3     H1       HT       0.417000       1.00800           0
     31561 TIP3     4742     TIP3     H2       HT       0.417000       1.00800           0
     31562 TIP3     4743     TIP3     OH2      OT      -0.834000       15.9994           0
     31563 TIP3     4743     TIP3     H1       HT       0.417000       1.00800           0
     31564 TIP3     4743     TIP3     H2       HT       0.417000       1.00800           0
     31565 TIP3     4744     TIP3     OH2      OT      -0.834000       15.9994           0
     31566 TIP3     4744     TIP3     H1       HT       0.417000       1.00800           0
     31567 TIP3     4744     TIP3     H2       HT       0.417000       1.00800           0
     31568 TIP3     4745     TIP3     OH2      OT      -0.834000       15.9994           0
     31569 TIP3     4745     TIP3     H1       HT       0.417000       1.00800           0
     31570 TIP3     4745     TIP3     H2       HT       0.417000       1.00800           0
     31571 TIP3     4746     TIP3     OH2      OT      -0.834000       15.9994           0
     31572 TIP3     4746     TIP3     H1       HT       0.417000       1.00800           0
     31573 TIP3     4746     TIP3     H2       HT       0.417000       1.00800           0
     31574 TIP3     4747     TIP3     OH2      OT      -0.834000       15.9994           0
     31575 TIP3     4747     TIP3     H1       HT       0.417000       1.00800           0
     31576 TIP3     4747     TIP3     H2       HT       0.417000       1.00800           0
     31577 TIP3     4748     TIP3     OH2      OT      -0.834000       15.9994           0
     31578 TIP3     4748     TIP3     H1       HT       0.417000       1.00800           0
     31579 TIP3     4748     TIP3     H2       HT       0.417000       1.00800           0
     31580 TIP3     4749     TIP3     OH2      OT      -0.834000       15.9994           0
     31581 TIP3     4749     TIP3     H1       HT       0.417000       1.00800           0
     31582 TIP3     4749     TIP3     H2       HT       0.417000       1.00800           0
     31583 TIP3     4750     TIP3     OH2      OT      -0.834000       15.9994           0
     31584 TIP3     4750     TIP3     H1       HT       0.417000       1.00800           0
     31585 TIP3     4750     TIP3     H2       HT       0.417000       1.00800           0
     31586 TIP3     4751     TIP3     OH2      OT      -0.834000       15.9994           0
     31587 TIP3     4751     TIP3     H1       HT       0.417000       1.00800           0
     31588 TIP3     4751     TIP3     H2       HT       0.417000       1.00800           0
     31589 TIP3     4752     TIP3     OH2      OT      -0.834000       15.9994           0
     31590 TIP3     4752     TIP3     H1       HT       0.417000       1.00800           0
     31591 TIP3     4752     TIP3     H2       HT       0.417000       1.00800           0
     31592 TIP3     4753     TIP3     OH2      OT      -0.834000       15.9994           0
     31593 TIP3     4753     TIP3     H1       HT       0.417000       1.00800           0
     31594 TIP3     4753     TIP3     H2       HT       0.417000       1.00800           0
     31595 TIP3     4754     TIP3     OH2      OT      -0.834000       15.9994           0
     31596 TIP3     4754     TIP3     H1       HT       0.417000       1.00800           0
     31597 TIP3     4754     TIP3     H2       HT       0.417000       1.00800           0
     31598 TIP3     4755     TIP3     OH2      OT      -0.834000       15.9994           0
     31599 TIP3     4755     TIP3     H1       HT       0.417000       1.00800           0
     31600 TIP3     4755     TIP3     H2       HT       0.417000       1.00800           0
     31601 TIP3     4756     TIP3     OH2      OT      -0.834000       15.9994           0
     31602 TIP3     4756     TIP3     H1       HT       0.417000       1.00800           0
     31603 TIP3     4756     TIP3     H2       HT       0.417000       1.00800           0
     31604 TIP3     4757     TIP3     OH2      OT      -0.834000       15.9994           0
     31605 TIP3     4757     TIP3     H1       HT       0.417000       1.00800           0
     31606 TIP3     4757     TIP3     H2       HT       0.417000       1.00800           0
     31607 TIP3     4758     TIP3     OH2      OT      -0.834000       15.9994           0
     31608 TIP3     4758     TIP3     H1       HT       0.417000       1.00800           0
     31609 TIP3     4758     TIP3     H2       HT       0.417000       1.00800           0
     31610 TIP3     4759     TIP3     OH2      OT      -0.834000       15.9994           0
     31611 TIP3     4759     TIP3     H1       HT       0.417000       1.00800           0
     31612 TIP3     4759     TIP3     H2       HT       0.417000       1.00800           0
     31613 TIP3     4760     TIP3     OH2      OT      -0.834000       15.9994           0
     31614 TIP3     4760     TIP3     H1       HT       0.417000       1.00800           0
     31615 TIP3     4760     TIP3     H2       HT       0.417000       1.00800           0
     31616 TIP3     4761     TIP3     OH2      OT      -0.834000       15.9994           0
     31617 TIP3     4761     TIP3     H1       HT       0.417000       1.00800           0
     31618 TIP3     4761     TIP3     H2       HT       0.417000       1.00800           0
     31619 TIP3     4762     TIP3     OH2      OT      -0.834000       15.9994           0
     31620 TIP3     4762     TIP3     H1       HT       0.417000       1.00800           0
     31621 TIP3     4762     TIP3     H2       HT       0.417000       1.00800           0
     31622 TIP3     4763     TIP3     OH2      OT      -0.834000       15.9994           0
     31623 TIP3     4763     TIP3     H1       HT       0.417000       1.00800           0
     31624 TIP3     4763     TIP3     H2       HT       0.417000       1.00800           0
     31625 TIP3     4764     TIP3     OH2      OT      -0.834000       15.9994           0
     31626 TIP3     4764     TIP3     H1       HT       0.417000       1.00800           0
     31627 TIP3     4764     TIP3     H2       HT       0.417000       1.00800           0
     31628 TIP3     4765     TIP3     OH2      OT      -0.834000       15.9994           0
     31629 TIP3     4765     TIP3     H1       HT       0.417000       1.00800           0
     31630 TIP3     4765     TIP3     H2       HT       0.417000       1.00800           0
     31631 TIP3     4766     TIP3     OH2      OT      -0.834000       15.9994           0
     31632 TIP3     4766     TIP3     H1       HT       0.417000       1.00800           0
     31633 TIP3     4766     TIP3     H2       HT       0.417000       1.00800           0
     31634 TIP3     4767     TIP3     OH2      OT      -0.834000       15.9994           0
     31635 TIP3     4767     TIP3     H1       HT       0.417000       1.00800           0
     31636 TIP3     4767     TIP3     H2       HT       0.417000       1.00800           0
     31637 TIP3     4768     TIP3     OH2      OT      -0.834000       15.9994           0
     31638 TIP3     4768     TIP3     H1       HT       0.417000       1.00800           0
     31639 TIP3     4768     TIP3     H2       HT       0.417000       1.00800           0
     31640 TIP3     4769     TIP3     OH2      OT      -0.834000       15.9994           0
     31641 TIP3     4769     TIP3     H1       HT       0.417000       1.00800           0
     31642 TIP3     4769     TIP3     H2       HT       0.417000       1.00800           0
     31643 TIP3     4770     TIP3     OH2      OT      -0.834000       15.9994           0
     31644 TIP3     4770     TIP3     H1       HT       0.417000       1.00800           0
     31645 TIP3     4770     TIP3     H2       HT       0.417000       1.00800           0
     31646 TIP3     4771     TIP3     OH2      OT      -0.834000       15.9994           0
     31647 TIP3     4771     TIP3     H1       HT       0.417000       1.00800           0
     31648 TIP3     4771     TIP3     H2       HT       0.417000       1.00800           0
     31649 TIP3     4772     TIP3     OH2      OT      -0.834000       15.9994           0
     31650 TIP3     4772     TIP3     H1       HT       0.417000       1.00800           0
     31651 TIP3     4772     TIP3     H2       HT       0.417000       1.00800           0
     31652 TIP3     4773     TIP3     OH2      OT      -0.834000       15.9994           0
     31653 TIP3     4773     TIP3     H1       HT       0.417000       1.00800           0
     31654 TIP3     4773     TIP3     H2       HT       0.417000       1.00800           0
     31655 TIP3     4774     TIP3     OH2      OT      -0.834000       15.9994           0
     31656 TIP3     4774     TIP3     H1       HT       0.417000       1.00800           0
     31657 TIP3     4774     TIP3     H2       HT       0.417000       1.00800           0
     31658 TIP3     4775     TIP3     OH2      OT      -0.834000       15.9994           0
     31659 TIP3     4775     TIP3     H1       HT       0.417000       1.00800           0
     31660 TIP3     4775     TIP3     H2       HT       0.417000       1.00800           0
     31661 TIP3     4776     TIP3     OH2      OT      -0.834000       15.9994           0
     31662 TIP3     4776     TIP3     H1       HT       0.417000       1.00800           0
     31663 TIP3     4776     TIP3     H2       HT       0.417000       1.00800           0
     31664 TIP3     4777     TIP3     OH2      OT      -0.834000       15.9994           0
     31665 TIP3     4777     TIP3     H1       HT       0.417000       1.00800           0
     31666 TIP3     4777     TIP3     H2       HT       0.417000       1.00800           0
     31667 TIP3     4778     TIP3     OH2      OT      -0.834000       15.9994           0
     31668 TIP3     4778     TIP3     H1       HT       0.417000       1.00800           0
     31669 TIP3     4778     TIP3     H2       HT       0.417000       1.00800           0
     31670 TIP3     4779     TIP3     OH2      OT      -0.834000       15.9994           0
     31671 TIP3     4779     TIP3     H1       HT       0.417000       1.00800           0
     31672 TIP3     4779     TIP3     H2       HT       0.417000       1.00800           0
     31673 TIP3     4780     TIP3     OH2      OT      -0.834000       15.9994           0
     31674 TIP3     4780     TIP3     H1       HT       0.417000       1.00800           0
     31675 TIP3     4780     TIP3     H2       HT       0.417000       1.00800           0
     31676 TIP3     4781     TIP3     OH2      OT      -0.834000       15.9994           0
     31677 TIP3     4781     TIP3     H1       HT       0.417000       1.00800           0
     31678 TIP3     4781     TIP3     H2       HT       0.417000       1.00800           0
     31679 TIP3     4782     TIP3     OH2      OT      -0.834000       15.9994           0
     31680 TIP3     4782     TIP3     H1       HT       0.417000       1.00800           0
     31681 TIP3     4782     TIP3     H2       HT       0.417000       1.00800           0
     31682 TIP3     4783     TIP3     OH2      OT      -0.834000       15.9994           0
     31683 TIP3     4783     TIP3     H1       HT       0.417000       1.00800           0
     31684 TIP3     4783     TIP3     H2       HT       0.417000       1.00800           0
     31685 TIP3     4784     TIP3     OH2      OT      -0.834000       15.9994           0
     31686 TIP3     4784     TIP3     H1       HT       0.417000       1.00800           0
     31687 TIP3     4784     TIP3     H2       HT       0.417000       1.00800           0
     31688 TIP3     4785     TIP3     OH2      OT      -0.834000       15.9994           0
     31689 TIP3     4785     TIP3     H1       HT       0.417000       1.00800           0
     31690 TIP3     4785     TIP3     H2       HT       0.417000       1.00800           0
     31691 TIP3     4786     TIP3     OH2      OT      -0.834000       15.9994           0
     31692 TIP3     4786     TIP3     H1       HT       0.417000       1.00800           0
     31693 TIP3     4786     TIP3     H2       HT       0.417000       1.00800           0
     31694 TIP3     4787     TIP3     OH2      OT      -0.834000       15.9994           0
     31695 TIP3     4787     TIP3     H1       HT       0.417000       1.00800           0
     31696 TIP3     4787     TIP3     H2       HT       0.417000       1.00800           0
     31697 TIP3     4788     TIP3     OH2      OT      -0.834000       15.9994           0
     31698 TIP3     4788     TIP3     H1       HT       0.417000       1.00800           0
     31699 TIP3     4788     TIP3     H2       HT       0.417000       1.00800           0
     31700 TIP3     4789     TIP3     OH2      OT      -0.834000       15.9994           0
     31701 TIP3     4789     TIP3     H1       HT       0.417000       1.00800           0
     31702 TIP3     4789     TIP3     H2       HT       0.417000       1.00800           0
     31703 TIP3     4790     TIP3     OH2      OT      -0.834000       15.9994           0
     31704 TIP3     4790     TIP3     H1       HT       0.417000       1.00800           0
     31705 TIP3     4790     TIP3     H2       HT       0.417000       1.00800           0
     31706 TIP3     4791     TIP3     OH2      OT      -0.834000       15.9994           0
     31707 TIP3     4791     TIP3     H1       HT       0.417000       1.00800           0
     31708 TIP3     4791     TIP3     H2       HT       0.417000       1.00800           0
     31709 TIP3     4792     TIP3     OH2      OT      -0.834000       15.9994           0
     31710 TIP3     4792     TIP3     H1       HT       0.417000       1.00800           0
     31711 TIP3     4792     TIP3     H2       HT       0.417000       1.00800           0
     31712 TIP3     4793     TIP3     OH2      OT      -0.834000       15.9994           0
     31713 TIP3     4793     TIP3     H1       HT       0.417000       1.00800           0
     31714 TIP3     4793     TIP3     H2       HT       0.417000       1.00800           0
     31715 TIP3     4794     TIP3     OH2      OT      -0.834000       15.9994           0
     31716 TIP3     4794     TIP3     H1       HT       0.417000       1.00800           0
     31717 TIP3     4794     TIP3     H2       HT       0.417000       1.00800           0
     31718 TIP3     4795     TIP3     OH2      OT      -0.834000       15.9994           0
     31719 TIP3     4795     TIP3     H1       HT       0.417000       1.00800           0
     31720 TIP3     4795     TIP3     H2       HT       0.417000       1.00800           0
     31721 TIP3     4796     TIP3     OH2      OT      -0.834000       15.9994           0
     31722 TIP3     4796     TIP3     H1       HT       0.417000       1.00800           0
     31723 TIP3     4796     TIP3     H2       HT       0.417000       1.00800           0
     31724 TIP3     4797     TIP3     OH2      OT      -0.834000       15.9994           0
     31725 TIP3     4797     TIP3     H1       HT       0.417000       1.00800           0
     31726 TIP3     4797     TIP3     H2       HT       0.417000       1.00800           0
     31727 TIP3     4798     TIP3     OH2      OT      -0.834000       15.9994           0
     31728 TIP3     4798     TIP3     H1       HT       0.417000       1.00800           0
     31729 TIP3     4798     TIP3     H2       HT       0.417000       1.00800           0
     31730 TIP3     4799     TIP3     OH2      OT      -0.834000       15.9994           0
     31731 TIP3     4799     TIP3     H1       HT       0.417000       1.00800           0
     31732 TIP3     4799     TIP3     H2       HT       0.417000       1.00800           0
     31733 TIP3     4800     TIP3     OH2      OT      -0.834000       15.9994           0
     31734 TIP3     4800     TIP3     H1       HT       0.417000       1.00800           0
     31735 TIP3     4800     TIP3     H2       HT       0.417000       1.00800           0
     31736 TIP3     4801     TIP3     OH2      OT      -0.834000       15.9994           0
     31737 TIP3     4801     TIP3     H1       HT       0.417000       1.00800           0
     31738 TIP3     4801     TIP3     H2       HT       0.417000       1.00800           0
     31739 TIP3     4802     TIP3     OH2      OT      -0.834000       15.9994           0
     31740 TIP3     4802     TIP3     H1       HT       0.417000       1.00800           0
     31741 TIP3     4802     TIP3     H2       HT       0.417000       1.00800           0
     31742 TIP3     4803     TIP3     OH2      OT      -0.834000       15.9994           0
     31743 TIP3     4803     TIP3     H1       HT       0.417000       1.00800           0
     31744 TIP3     4803     TIP3     H2       HT       0.417000       1.00800           0
     31745 TIP3     4804     TIP3     OH2      OT      -0.834000       15.9994           0
     31746 TIP3     4804     TIP3     H1       HT       0.417000       1.00800           0
     31747 TIP3     4804     TIP3     H2       HT       0.417000       1.00800           0
     31748 TIP3     4805     TIP3     OH2      OT      -0.834000       15.9994           0
     31749 TIP3     4805     TIP3     H1       HT       0.417000       1.00800           0
     31750 TIP3     4805     TIP3     H2       HT       0.417000       1.00800           0
     31751 TIP3     4806     TIP3     OH2      OT      -0.834000       15.9994           0
     31752 TIP3     4806     TIP3     H1       HT       0.417000       1.00800           0
     31753 TIP3     4806     TIP3     H2       HT       0.417000       1.00800           0
     31754 TIP3     4807     TIP3     OH2      OT      -0.834000       15.9994           0
     31755 TIP3     4807     TIP3     H1       HT       0.417000       1.00800           0
     31756 TIP3     4807     TIP3     H2       HT       0.417000       1.00800           0
     31757 TIP3     4808     TIP3     OH2      OT      -0.834000       15.9994           0
     31758 TIP3     4808     TIP3     H1       HT       0.417000       1.00800           0
     31759 TIP3     4808     TIP3     H2       HT       0.417000       1.00800           0
     31760 TIP3     4809     TIP3     OH2      OT      -0.834000       15.9994           0
     31761 TIP3     4809     TIP3     H1       HT       0.417000       1.00800           0
     31762 TIP3     4809     TIP3     H2       HT       0.417000       1.00800           0
     31763 TIP3     4810     TIP3     OH2      OT      -0.834000       15.9994           0
     31764 TIP3     4810     TIP3     H1       HT       0.417000       1.00800           0
     31765 TIP3     4810     TIP3     H2       HT       0.417000       1.00800           0
     31766 TIP3     4811     TIP3     OH2      OT      -0.834000       15.9994           0
     31767 TIP3     4811     TIP3     H1       HT       0.417000       1.00800           0
     31768 TIP3     4811     TIP3     H2       HT       0.417000       1.00800           0
     31769 TIP3     4812     TIP3     OH2      OT      -0.834000       15.9994           0
     31770 TIP3     4812     TIP3     H1       HT       0.417000       1.00800           0
     31771 TIP3     4812     TIP3     H2       HT       0.417000       1.00800           0
     31772 TIP3     4813     TIP3     OH2      OT      -0.834000       15.9994           0
     31773 TIP3     4813     TIP3     H1       HT       0.417000       1.00800           0
     31774 TIP3     4813     TIP3     H2       HT       0.417000       1.00800           0
     31775 TIP3     4814     TIP3     OH2      OT      -0.834000       15.9994           0
     31776 TIP3     4814     TIP3     H1       HT       0.417000       1.00800           0
     31777 TIP3     4814     TIP3     H2       HT       0.417000       1.00800           0
     31778 TIP3     4815     TIP3     OH2      OT      -0.834000       15.9994           0
     31779 TIP3     4815     TIP3     H1       HT       0.417000       1.00800           0
     31780 TIP3     4815     TIP3     H2       HT       0.417000       1.00800           0
     31781 TIP3     4816     TIP3     OH2      OT      -0.834000       15.9994           0
     31782 TIP3     4816     TIP3     H1       HT       0.417000       1.00800           0
     31783 TIP3     4816     TIP3     H2       HT       0.417000       1.00800           0
     31784 TIP3     4817     TIP3     OH2      OT      -0.834000       15.9994           0
     31785 TIP3     4817     TIP3     H1       HT       0.417000       1.00800           0
     31786 TIP3     4817     TIP3     H2       HT       0.417000       1.00800           0
     31787 TIP3     4818     TIP3     OH2      OT      -0.834000       15.9994           0
     31788 TIP3     4818     TIP3     H1       HT       0.417000       1.00800           0
     31789 TIP3     4818     TIP3     H2       HT       0.417000       1.00800           0
     31790 TIP3     4819     TIP3     OH2      OT      -0.834000       15.9994           0
     31791 TIP3     4819     TIP3     H1       HT       0.417000       1.00800           0
     31792 TIP3     4819     TIP3     H2       HT       0.417000       1.00800           0
     31793 TIP3     4820     TIP3     OH2      OT      -0.834000       15.9994           0
     31794 TIP3     4820     TIP3     H1       HT       0.417000       1.00800           0
     31795 TIP3     4820     TIP3     H2       HT       0.417000       1.00800           0
     31796 TIP3     4821     TIP3     OH2      OT      -0.834000       15.9994           0
     31797 TIP3     4821     TIP3     H1       HT       0.417000       1.00800           0
     31798 TIP3     4821     TIP3     H2       HT       0.417000       1.00800           0
     31799 TIP3     4822     TIP3     OH2      OT      -0.834000       15.9994           0
     31800 TIP3     4822     TIP3     H1       HT       0.417000       1.00800           0
     31801 TIP3     4822     TIP3     H2       HT       0.417000       1.00800           0
     31802 TIP3     4823     TIP3     OH2      OT      -0.834000       15.9994           0
     31803 TIP3     4823     TIP3     H1       HT       0.417000       1.00800           0
     31804 TIP3     4823     TIP3     H2       HT       0.417000       1.00800           0
     31805 TIP3     4824     TIP3     OH2      OT      -0.834000       15.9994           0
     31806 TIP3     4824     TIP3     H1       HT       0.417000       1.00800           0
     31807 TIP3     4824     TIP3     H2       HT       0.417000       1.00800           0
     31808 TIP3     4825     TIP3     OH2      OT      -0.834000       15.9994           0
     31809 TIP3     4825     TIP3     H1       HT       0.417000       1.00800           0
     31810 TIP3     4825     TIP3     H2       HT       0.417000       1.00800           0
     31811 TIP3     4826     TIP3     OH2      OT      -0.834000       15.9994           0
     31812 TIP3     4826     TIP3     H1       HT       0.417000       1.00800           0
     31813 TIP3     4826     TIP3     H2       HT       0.417000       1.00800           0
     31814 TIP3     4827     TIP3     OH2      OT      -0.834000       15.9994           0
     31815 TIP3     4827     TIP3     H1       HT       0.417000       1.00800           0
     31816 TIP3     4827     TIP3     H2       HT       0.417000       1.00800           0
     31817 TIP3     4828     TIP3     OH2      OT      -0.834000       15.9994           0
     31818 TIP3     4828     TIP3     H1       HT       0.417000       1.00800           0
     31819 TIP3     4828     TIP3     H2       HT       0.417000       1.00800           0
     31820 TIP3     4829     TIP3     OH2      OT      -0.834000       15.9994           0
     31821 TIP3     4829     TIP3     H1       HT       0.417000       1.00800           0
     31822 TIP3     4829     TIP3     H2       HT       0.417000       1.00800           0
     31823 TIP3     4830     TIP3     OH2      OT      -0.834000       15.9994           0
     31824 TIP3     4830     TIP3     H1       HT       0.417000       1.00800           0
     31825 TIP3     4830     TIP3     H2       HT       0.417000       1.00800           0
     31826 TIP3     4831     TIP3     OH2      OT      -0.834000       15.9994           0
     31827 TIP3     4831     TIP3     H1       HT       0.417000       1.00800           0
     31828 TIP3     4831     TIP3     H2       HT       0.417000       1.00800           0
     31829 TIP3     4832     TIP3     OH2      OT      -0.834000       15.9994           0
     31830 TIP3     4832     TIP3     H1       HT       0.417000       1.00800           0
     31831 TIP3     4832     TIP3     H2       HT       0.417000       1.00800           0
     31832 TIP3     4833     TIP3     OH2      OT      -0.834000       15.9994           0
     31833 TIP3     4833     TIP3     H1       HT       0.417000       1.00800           0
     31834 TIP3     4833     TIP3     H2       HT       0.417000       1.00800           0
     31835 TIP3     4834     TIP3     OH2      OT      -0.834000       15.9994           0
     31836 TIP3     4834     TIP3     H1       HT       0.417000       1.00800           0
     31837 TIP3     4834     TIP3     H2       HT       0.417000       1.00800           0
     31838 TIP3     4835     TIP3     OH2      OT      -0.834000       15.9994           0
     31839 TIP3     4835     TIP3     H1       HT       0.417000       1.00800           0
     31840 TIP3     4835     TIP3     H2       HT       0.417000       1.00800           0
     31841 TIP3     4836     TIP3     OH2      OT      -0.834000       15.9994           0
     31842 TIP3     4836     TIP3     H1       HT       0.417000       1.00800           0
     31843 TIP3     4836     TIP3     H2       HT       0.417000       1.00800           0
     31844 TIP3     4837     TIP3     OH2      OT      -0.834000       15.9994           0
     31845 TIP3     4837     TIP3     H1       HT       0.417000       1.00800           0
     31846 TIP3     4837     TIP3     H2       HT       0.417000       1.00800           0
     31847 TIP3     4838     TIP3     OH2      OT      -0.834000       15.9994           0
     31848 TIP3     4838     TIP3     H1       HT       0.417000       1.00800           0
     31849 TIP3     4838     TIP3     H2       HT       0.417000       1.00800           0
     31850 TIP3     4839     TIP3     OH2      OT      -0.834000       15.9994           0
     31851 TIP3     4839     TIP3     H1       HT       0.417000       1.00800           0
     31852 TIP3     4839     TIP3     H2       HT       0.417000       1.00800           0
     31853 TIP3     4840     TIP3     OH2      OT      -0.834000       15.9994           0
     31854 TIP3     4840     TIP3     H1       HT       0.417000       1.00800           0
     31855 TIP3     4840     TIP3     H2       HT       0.417000       1.00800           0
     31856 TIP3     4841     TIP3     OH2      OT      -0.834000       15.9994           0
     31857 TIP3     4841     TIP3     H1       HT       0.417000       1.00800           0
     31858 TIP3     4841     TIP3     H2       HT       0.417000       1.00800           0
     31859 TIP3     4842     TIP3     OH2      OT      -0.834000       15.9994           0
     31860 TIP3     4842     TIP3     H1       HT       0.417000       1.00800           0
     31861 TIP3     4842     TIP3     H2       HT       0.417000       1.00800           0
     31862 TIP3     4843     TIP3     OH2      OT      -0.834000       15.9994           0
     31863 TIP3     4843     TIP3     H1       HT       0.417000       1.00800           0
     31864 TIP3     4843     TIP3     H2       HT       0.417000       1.00800           0
     31865 TIP3     4844     TIP3     OH2      OT      -0.834000       15.9994           0
     31866 TIP3     4844     TIP3     H1       HT       0.417000       1.00800           0
     31867 TIP3     4844     TIP3     H2       HT       0.417000       1.00800           0
     31868 TIP3     4845     TIP3     OH2      OT      -0.834000       15.9994           0
     31869 TIP3     4845     TIP3     H1       HT       0.417000       1.00800           0
     31870 TIP3     4845     TIP3     H2       HT       0.417000       1.00800           0
     31871 TIP3     4846     TIP3     OH2      OT      -0.834000       15.9994           0
     31872 TIP3     4846     TIP3     H1       HT       0.417000       1.00800           0
     31873 TIP3     4846     TIP3     H2       HT       0.417000       1.00800           0
     31874 TIP3     4847     TIP3     OH2      OT      -0.834000       15.9994           0
     31875 TIP3     4847     TIP3     H1       HT       0.417000       1.00800           0
     31876 TIP3     4847     TIP3     H2       HT       0.417000       1.00800           0
     31877 TIP3     4848     TIP3     OH2      OT      -0.834000       15.9994           0
     31878 TIP3     4848     TIP3     H1       HT       0.417000       1.00800           0
     31879 TIP3     4848     TIP3     H2       HT       0.417000       1.00800           0
     31880 TIP3     4849     TIP3     OH2      OT      -0.834000       15.9994           0
     31881 TIP3     4849     TIP3     H1       HT       0.417000       1.00800           0
     31882 TIP3     4849     TIP3     H2       HT       0.417000       1.00800           0
     31883 TIP3     4850     TIP3     OH2      OT      -0.834000       15.9994           0
     31884 TIP3     4850     TIP3     H1       HT       0.417000       1.00800           0
     31885 TIP3     4850     TIP3     H2       HT       0.417000       1.00800           0
     31886 TIP3     4851     TIP3     OH2      OT      -0.834000       15.9994           0
     31887 TIP3     4851     TIP3     H1       HT       0.417000       1.00800           0
     31888 TIP3     4851     TIP3     H2       HT       0.417000       1.00800           0
     31889 TIP3     4852     TIP3     OH2      OT      -0.834000       15.9994           0
     31890 TIP3     4852     TIP3     H1       HT       0.417000       1.00800           0
     31891 TIP3     4852     TIP3     H2       HT       0.417000       1.00800           0
     31892 TIP3     4853     TIP3     OH2      OT      -0.834000       15.9994           0
     31893 TIP3     4853     TIP3     H1       HT       0.417000       1.00800           0
     31894 TIP3     4853     TIP3     H2       HT       0.417000       1.00800           0
     31895 TIP3     4854     TIP3     OH2      OT      -0.834000       15.9994           0
     31896 TIP3     4854     TIP3     H1       HT       0.417000       1.00800           0
     31897 TIP3     4854     TIP3     H2       HT       0.417000       1.00800           0
     31898 TIP3     4855     TIP3     OH2      OT      -0.834000       15.9994           0
     31899 TIP3     4855     TIP3     H1       HT       0.417000       1.00800           0
     31900 TIP3     4855     TIP3     H2       HT       0.417000       1.00800           0
     31901 TIP3     4856     TIP3     OH2      OT      -0.834000       15.9994           0
     31902 TIP3     4856     TIP3     H1       HT       0.417000       1.00800           0
     31903 TIP3     4856     TIP3     H2       HT       0.417000       1.00800           0
     31904 TIP3     4857     TIP3     OH2      OT      -0.834000       15.9994           0
     31905 TIP3     4857     TIP3     H1       HT       0.417000       1.00800           0
     31906 TIP3     4857     TIP3     H2       HT       0.417000       1.00800           0
     31907 TIP3     4858     TIP3     OH2      OT      -0.834000       15.9994           0
     31908 TIP3     4858     TIP3     H1       HT       0.417000       1.00800           0
     31909 TIP3     4858     TIP3     H2       HT       0.417000       1.00800           0
     31910 TIP3     4859     TIP3     OH2      OT      -0.834000       15.9994           0
     31911 TIP3     4859     TIP3     H1       HT       0.417000       1.00800           0
     31912 TIP3     4859     TIP3     H2       HT       0.417000       1.00800           0
     31913 TIP3     4860     TIP3     OH2      OT      -0.834000       15.9994           0
     31914 TIP3     4860     TIP3     H1       HT       0.417000       1.00800           0
     31915 TIP3     4860     TIP3     H2       HT       0.417000       1.00800           0
     31916 TIP3     4861     TIP3     OH2      OT      -0.834000       15.9994           0
     31917 TIP3     4861     TIP3     H1       HT       0.417000       1.00800           0
     31918 TIP3     4861     TIP3     H2       HT       0.417000       1.00800           0
     31919 TIP3     4862     TIP3     OH2      OT      -0.834000       15.9994           0
     31920 TIP3     4862     TIP3     H1       HT       0.417000       1.00800           0
     31921 TIP3     4862     TIP3     H2       HT       0.417000       1.00800           0
     31922 TIP3     4863     TIP3     OH2      OT      -0.834000       15.9994           0
     31923 TIP3     4863     TIP3     H1       HT       0.417000       1.00800           0
     31924 TIP3     4863     TIP3     H2       HT       0.417000       1.00800           0
     31925 TIP3     4864     TIP3     OH2      OT      -0.834000       15.9994           0
     31926 TIP3     4864     TIP3     H1       HT       0.417000       1.00800           0
     31927 TIP3     4864     TIP3     H2       HT       0.417000       1.00800           0
     31928 TIP3     4865     TIP3     OH2      OT      -0.834000       15.9994           0
     31929 TIP3     4865     TIP3     H1       HT       0.417000       1.00800           0
     31930 TIP3     4865     TIP3     H2       HT       0.417000       1.00800           0
     31931 TIP3     4866     TIP3     OH2      OT      -0.834000       15.9994           0
     31932 TIP3     4866     TIP3     H1       HT       0.417000       1.00800           0
     31933 TIP3     4866     TIP3     H2       HT       0.417000       1.00800           0
     31934 TIP3     4867     TIP3     OH2      OT      -0.834000       15.9994           0
     31935 TIP3     4867     TIP3     H1       HT       0.417000       1.00800           0
     31936 TIP3     4867     TIP3     H2       HT       0.417000       1.00800           0
     31937 TIP3     4868     TIP3     OH2      OT      -0.834000       15.9994           0
     31938 TIP3     4868     TIP3     H1       HT       0.417000       1.00800           0
     31939 TIP3     4868     TIP3     H2       HT       0.417000       1.00800           0
     31940 TIP3     4869     TIP3     OH2      OT      -0.834000       15.9994           0
     31941 TIP3     4869     TIP3     H1       HT       0.417000       1.00800           0
     31942 TIP3     4869     TIP3     H2       HT       0.417000       1.00800           0
     31943 TIP3     4870     TIP3     OH2      OT      -0.834000       15.9994           0
     31944 TIP3     4870     TIP3     H1       HT       0.417000       1.00800           0
     31945 TIP3     4870     TIP3     H2       HT       0.417000       1.00800           0
     31946 TIP3     4871     TIP3     OH2      OT      -0.834000       15.9994           0
     31947 TIP3     4871     TIP3     H1       HT       0.417000       1.00800           0
     31948 TIP3     4871     TIP3     H2       HT       0.417000       1.00800           0
     31949 TIP3     4872     TIP3     OH2      OT      -0.834000       15.9994           0
     31950 TIP3     4872     TIP3     H1       HT       0.417000       1.00800           0
     31951 TIP3     4872     TIP3     H2       HT       0.417000       1.00800           0
     31952 TIP3     4873     TIP3     OH2      OT      -0.834000       15.9994           0
     31953 TIP3     4873     TIP3     H1       HT       0.417000       1.00800           0
     31954 TIP3     4873     TIP3     H2       HT       0.417000       1.00800           0
     31955 TIP3     4874     TIP3     OH2      OT      -0.834000       15.9994           0
     31956 TIP3     4874     TIP3     H1       HT       0.417000       1.00800           0
     31957 TIP3     4874     TIP3     H2       HT       0.417000       1.00800           0
     31958 TIP3     4875     TIP3     OH2      OT      -0.834000       15.9994           0
     31959 TIP3     4875     TIP3     H1       HT       0.417000       1.00800           0
     31960 TIP3     4875     TIP3     H2       HT       0.417000       1.00800           0
     31961 TIP3     4876     TIP3     OH2      OT      -0.834000       15.9994           0
     31962 TIP3     4876     TIP3     H1       HT       0.417000       1.00800           0
     31963 TIP3     4876     TIP3     H2       HT       0.417000       1.00800           0
     31964 TIP3     4877     TIP3     OH2      OT      -0.834000       15.9994           0
     31965 TIP3     4877     TIP3     H1       HT       0.417000       1.00800           0
     31966 TIP3     4877     TIP3     H2       HT       0.417000       1.00800           0
     31967 TIP3     4878     TIP3     OH2      OT      -0.834000       15.9994           0
     31968 TIP3     4878     TIP3     H1       HT       0.417000       1.00800           0
     31969 TIP3     4878     TIP3     H2       HT       0.417000       1.00800           0
     31970 TIP3     4879     TIP3     OH2      OT      -0.834000       15.9994           0
     31971 TIP3     4879     TIP3     H1       HT       0.417000       1.00800           0
     31972 TIP3     4879     TIP3     H2       HT       0.417000       1.00800           0
     31973 TIP3     4880     TIP3     OH2      OT      -0.834000       15.9994           0
     31974 TIP3     4880     TIP3     H1       HT       0.417000       1.00800           0
     31975 TIP3     4880     TIP3     H2       HT       0.417000       1.00800           0
     31976 TIP3     4881     TIP3     OH2      OT      -0.834000       15.9994           0
     31977 TIP3     4881     TIP3     H1       HT       0.417000       1.00800           0
     31978 TIP3     4881     TIP3     H2       HT       0.417000       1.00800           0
     31979 TIP3     4882     TIP3     OH2      OT      -0.834000       15.9994           0
     31980 TIP3     4882     TIP3     H1       HT       0.417000       1.00800           0
     31981 TIP3     4882     TIP3     H2       HT       0.417000       1.00800           0
     31982 TIP3     4883     TIP3     OH2      OT      -0.834000       15.9994           0
     31983 TIP3     4883     TIP3     H1       HT       0.417000       1.00800           0
     31984 TIP3     4883     TIP3     H2       HT       0.417000       1.00800           0
     31985 TIP3     4884     TIP3     OH2      OT      -0.834000       15.9994           0
     31986 TIP3     4884     TIP3     H1       HT       0.417000       1.00800           0
     31987 TIP3     4884     TIP3     H2       HT       0.417000       1.00800           0
     31988 TIP3     4885     TIP3     OH2      OT      -0.834000       15.9994           0
     31989 TIP3     4885     TIP3     H1       HT       0.417000       1.00800           0
     31990 TIP3     4885     TIP3     H2       HT       0.417000       1.00800           0
     31991 TIP3     4886     TIP3     OH2      OT      -0.834000       15.9994           0
     31992 TIP3     4886     TIP3     H1       HT       0.417000       1.00800           0
     31993 TIP3     4886     TIP3     H2       HT       0.417000       1.00800           0
     31994 TIP3     4887     TIP3     OH2      OT      -0.834000       15.9994           0
     31995 TIP3     4887     TIP3     H1       HT       0.417000       1.00800           0
     31996 TIP3     4887     TIP3     H2       HT       0.417000       1.00800           0
     31997 TIP3     4888     TIP3     OH2      OT      -0.834000       15.9994           0
     31998 TIP3     4888     TIP3     H1       HT       0.417000       1.00800           0
     31999 TIP3     4888     TIP3     H2       HT       0.417000       1.00800           0
     32000 TIP3     4889     TIP3     OH2      OT      -0.834000       15.9994           0
     32001 TIP3     4889     TIP3     H1       HT       0.417000       1.00800           0
     32002 TIP3     4889     TIP3     H2       HT       0.417000       1.00800           0
     32003 TIP3     4890     TIP3     OH2      OT      -0.834000       15.9994           0
     32004 TIP3     4890     TIP3     H1       HT       0.417000       1.00800           0
     32005 TIP3     4890     TIP3     H2       HT       0.417000       1.00800           0
     32006 TIP3     4891     TIP3     OH2      OT      -0.834000       15.9994           0
     32007 TIP3     4891     TIP3     H1       HT       0.417000       1.00800           0
     32008 TIP3     4891     TIP3     H2       HT       0.417000       1.00800           0
     32009 TIP3     4892     TIP3     OH2      OT      -0.834000       15.9994           0
     32010 TIP3     4892     TIP3     H1       HT       0.417000       1.00800           0
     32011 TIP3     4892     TIP3     H2       HT       0.417000       1.00800           0
     32012 TIP3     4893     TIP3     OH2      OT      -0.834000       15.9994           0
     32013 TIP3     4893     TIP3     H1       HT       0.417000       1.00800           0
     32014 TIP3     4893     TIP3     H2       HT       0.417000       1.00800           0
     32015 TIP3     4894     TIP3     OH2      OT      -0.834000       15.9994           0
     32016 TIP3     4894     TIP3     H1       HT       0.417000       1.00800           0
     32017 TIP3     4894     TIP3     H2       HT       0.417000       1.00800           0
     32018 TIP3     4895     TIP3     OH2      OT      -0.834000       15.9994           0
     32019 TIP3     4895     TIP3     H1       HT       0.417000       1.00800           0
     32020 TIP3     4895     TIP3     H2       HT       0.417000       1.00800           0
     32021 TIP3     4896     TIP3     OH2      OT      -0.834000       15.9994           0
     32022 TIP3     4896     TIP3     H1       HT       0.417000       1.00800           0
     32023 TIP3     4896     TIP3     H2       HT       0.417000       1.00800           0
     32024 TIP3     4897     TIP3     OH2      OT      -0.834000       15.9994           0
     32025 TIP3     4897     TIP3     H1       HT       0.417000       1.00800           0
     32026 TIP3     4897     TIP3     H2       HT       0.417000       1.00800           0
     32027 TIP3     4898     TIP3     OH2      OT      -0.834000       15.9994           0
     32028 TIP3     4898     TIP3     H1       HT       0.417000       1.00800           0
     32029 TIP3     4898     TIP3     H2       HT       0.417000       1.00800           0
     32030 TIP3     4899     TIP3     OH2      OT      -0.834000       15.9994           0
     32031 TIP3     4899     TIP3     H1       HT       0.417000       1.00800           0
     32032 TIP3     4899     TIP3     H2       HT       0.417000       1.00800           0
     32033 TIP3     4900     TIP3     OH2      OT      -0.834000       15.9994           0
     32034 TIP3     4900     TIP3     H1       HT       0.417000       1.00800           0
     32035 TIP3     4900     TIP3     H2       HT       0.417000       1.00800           0
     32036 TIP3     4901     TIP3     OH2      OT      -0.834000       15.9994           0
     32037 TIP3     4901     TIP3     H1       HT       0.417000       1.00800           0
     32038 TIP3     4901     TIP3     H2       HT       0.417000       1.00800           0
     32039 TIP3     4902     TIP3     OH2      OT      -0.834000       15.9994           0
     32040 TIP3     4902     TIP3     H1       HT       0.417000       1.00800           0
     32041 TIP3     4902     TIP3     H2       HT       0.417000       1.00800           0
     32042 TIP3     4903     TIP3     OH2      OT      -0.834000       15.9994           0
     32043 TIP3     4903     TIP3     H1       HT       0.417000       1.00800           0
     32044 TIP3     4903     TIP3     H2       HT       0.417000       1.00800           0
     32045 TIP3     4904     TIP3     OH2      OT      -0.834000       15.9994           0
     32046 TIP3     4904     TIP3     H1       HT       0.417000       1.00800           0
     32047 TIP3     4904     TIP3     H2       HT       0.417000       1.00800           0
     32048 TIP3     4905     TIP3     OH2      OT      -0.834000       15.9994           0
     32049 TIP3     4905     TIP3     H1       HT       0.417000       1.00800           0
     32050 TIP3     4905     TIP3     H2       HT       0.417000       1.00800           0
     32051 TIP3     4906     TIP3     OH2      OT      -0.834000       15.9994           0
     32052 TIP3     4906     TIP3     H1       HT       0.417000       1.00800           0
     32053 TIP3     4906     TIP3     H2       HT       0.417000       1.00800           0
     32054 TIP3     4907     TIP3     OH2      OT      -0.834000       15.9994           0
     32055 TIP3     4907     TIP3     H1       HT       0.417000       1.00800           0
     32056 TIP3     4907     TIP3     H2       HT       0.417000       1.00800           0
     32057 TIP3     4908     TIP3     OH2      OT      -0.834000       15.9994           0
     32058 TIP3     4908     TIP3     H1       HT       0.417000       1.00800           0
     32059 TIP3     4908     TIP3     H2       HT       0.417000       1.00800           0
     32060 TIP3     4909     TIP3     OH2      OT      -0.834000       15.9994           0
     32061 TIP3     4909     TIP3     H1       HT       0.417000       1.00800           0
     32062 TIP3     4909     TIP3     H2       HT       0.417000       1.00800           0
     32063 TIP3     4910     TIP3     OH2      OT      -0.834000       15.9994           0
     32064 TIP3     4910     TIP3     H1       HT       0.417000       1.00800           0
     32065 TIP3     4910     TIP3     H2       HT       0.417000       1.00800           0
     32066 TIP3     4911     TIP3     OH2      OT      -0.834000       15.9994           0
     32067 TIP3     4911     TIP3     H1       HT       0.417000       1.00800           0
     32068 TIP3     4911     TIP3     H2       HT       0.417000       1.00800           0
     32069 TIP3     4912     TIP3     OH2      OT      -0.834000       15.9994           0
     32070 TIP3     4912     TIP3     H1       HT       0.417000       1.00800           0
     32071 TIP3     4912     TIP3     H2       HT       0.417000       1.00800           0
     32072 TIP3     4913     TIP3     OH2      OT      -0.834000       15.9994           0
     32073 TIP3     4913     TIP3     H1       HT       0.417000       1.00800           0
     32074 TIP3     4913     TIP3     H2       HT       0.417000       1.00800           0
     32075 TIP3     4914     TIP3     OH2      OT      -0.834000       15.9994           0
     32076 TIP3     4914     TIP3     H1       HT       0.417000       1.00800           0
     32077 TIP3     4914     TIP3     H2       HT       0.417000       1.00800           0
     32078 TIP3     4915     TIP3     OH2      OT      -0.834000       15.9994           0
     32079 TIP3     4915     TIP3     H1       HT       0.417000       1.00800           0
     32080 TIP3     4915     TIP3     H2       HT       0.417000       1.00800           0
     32081 TIP3     4916     TIP3     OH2      OT      -0.834000       15.9994           0
     32082 TIP3     4916     TIP3     H1       HT       0.417000       1.00800           0
     32083 TIP3     4916     TIP3     H2       HT       0.417000       1.00800           0
     32084 TIP3     4917     TIP3     OH2      OT      -0.834000       15.9994           0
     32085 TIP3     4917     TIP3     H1       HT       0.417000       1.00800           0
     32086 TIP3     4917     TIP3     H2       HT       0.417000       1.00800           0
     32087 TIP3     4918     TIP3     OH2      OT      -0.834000       15.9994           0
     32088 TIP3     4918     TIP3     H1       HT       0.417000       1.00800           0
     32089 TIP3     4918     TIP3     H2       HT       0.417000       1.00800           0
     32090 TIP3     4919     TIP3     OH2      OT      -0.834000       15.9994           0
     32091 TIP3     4919     TIP3     H1       HT       0.417000       1.00800           0
     32092 TIP3     4919     TIP3     H2       HT       0.417000       1.00800           0
     32093 TIP3     4920     TIP3     OH2      OT      -0.834000       15.9994           0
     32094 TIP3     4920     TIP3     H1       HT       0.417000       1.00800           0
     32095 TIP3     4920     TIP3     H2       HT       0.417000       1.00800           0
     32096 TIP3     4921     TIP3     OH2      OT      -0.834000       15.9994           0
     32097 TIP3     4921     TIP3     H1       HT       0.417000       1.00800           0
     32098 TIP3     4921     TIP3     H2       HT       0.417000       1.00800           0
     32099 TIP3     4922     TIP3     OH2      OT      -0.834000       15.9994           0
     32100 TIP3     4922     TIP3     H1       HT       0.417000       1.00800           0
     32101 TIP3     4922     TIP3     H2       HT       0.417000       1.00800           0
     32102 TIP3     4923     TIP3     OH2      OT      -0.834000       15.9994           0
     32103 TIP3     4923     TIP3     H1       HT       0.417000       1.00800           0
     32104 TIP3     4923     TIP3     H2       HT       0.417000       1.00800           0
     32105 TIP3     4924     TIP3     OH2      OT      -0.834000       15.9994           0
     32106 TIP3     4924     TIP3     H1       HT       0.417000       1.00800           0
     32107 TIP3     4924     TIP3     H2       HT       0.417000       1.00800           0
     32108 TIP3     4925     TIP3     OH2      OT      -0.834000       15.9994           0
     32109 TIP3     4925     TIP3     H1       HT       0.417000       1.00800           0
     32110 TIP3     4925     TIP3     H2       HT       0.417000       1.00800           0
     32111 TIP3     4926     TIP3     OH2      OT      -0.834000       15.9994           0
     32112 TIP3     4926     TIP3     H1       HT       0.417000       1.00800           0
     32113 TIP3     4926     TIP3     H2       HT       0.417000       1.00800           0
     32114 TIP3     4927     TIP3     OH2      OT      -0.834000       15.9994           0
     32115 TIP3     4927     TIP3     H1       HT       0.417000       1.00800           0
     32116 TIP3     4927     TIP3     H2       HT       0.417000       1.00800           0
     32117 TIP3     4928     TIP3     OH2      OT      -0.834000       15.9994           0
     32118 TIP3     4928     TIP3     H1       HT       0.417000       1.00800           0
     32119 TIP3     4928     TIP3     H2       HT       0.417000       1.00800           0
     32120 TIP3     4929     TIP3     OH2      OT      -0.834000       15.9994           0
     32121 TIP3     4929     TIP3     H1       HT       0.417000       1.00800           0
     32122 TIP3     4929     TIP3     H2       HT       0.417000       1.00800           0
     32123 TIP3     4930     TIP3     OH2      OT      -0.834000       15.9994           0
     32124 TIP3     4930     TIP3     H1       HT       0.417000       1.00800           0
     32125 TIP3     4930     TIP3     H2       HT       0.417000       1.00800           0
     32126 TIP3     4931     TIP3     OH2      OT      -0.834000       15.9994           0
     32127 TIP3     4931     TIP3     H1       HT       0.417000       1.00800           0
     32128 TIP3     4931     TIP3     H2       HT       0.417000       1.00800           0
     32129 TIP3     4932     TIP3     OH2      OT      -0.834000       15.9994           0
     32130 TIP3     4932     TIP3     H1       HT       0.417000       1.00800           0
     32131 TIP3     4932     TIP3     H2       HT       0.417000       1.00800           0
     32132 TIP3     4933     TIP3     OH2      OT      -0.834000       15.9994           0
     32133 TIP3     4933     TIP3     H1       HT       0.417000       1.00800           0
     32134 TIP3     4933     TIP3     H2       HT       0.417000       1.00800           0
     32135 TIP3     4934     TIP3     OH2      OT      -0.834000       15.9994           0
     32136 TIP3     4934     TIP3     H1       HT       0.417000       1.00800           0
     32137 TIP3     4934     TIP3     H2       HT       0.417000       1.00800           0
     32138 TIP3     4935     TIP3     OH2      OT      -0.834000       15.9994           0
     32139 TIP3     4935     TIP3     H1       HT       0.417000       1.00800           0
     32140 TIP3     4935     TIP3     H2       HT       0.417000       1.00800           0
     32141 TIP3     4936     TIP3     OH2      OT      -0.834000       15.9994           0
     32142 TIP3     4936     TIP3     H1       HT       0.417000       1.00800           0
     32143 TIP3     4936     TIP3     H2       HT       0.417000       1.00800           0
     32144 TIP3     4937     TIP3     OH2      OT      -0.834000       15.9994           0
     32145 TIP3     4937     TIP3     H1       HT       0.417000       1.00800           0
     32146 TIP3     4937     TIP3     H2       HT       0.417000       1.00800           0
     32147 TIP3     4938     TIP3     OH2      OT      -0.834000       15.9994           0
     32148 TIP3     4938     TIP3     H1       HT       0.417000       1.00800           0
     32149 TIP3     4938     TIP3     H2       HT       0.417000       1.00800           0
     32150 TIP3     4939     TIP3     OH2      OT      -0.834000       15.9994           0
     32151 TIP3     4939     TIP3     H1       HT       0.417000       1.00800           0
     32152 TIP3     4939     TIP3     H2       HT       0.417000       1.00800           0
     32153 TIP3     4940     TIP3     OH2      OT      -0.834000       15.9994           0
     32154 TIP3     4940     TIP3     H1       HT       0.417000       1.00800           0
     32155 TIP3     4940     TIP3     H2       HT       0.417000       1.00800           0
     32156 TIP3     4941     TIP3     OH2      OT      -0.834000       15.9994           0
     32157 TIP3     4941     TIP3     H1       HT       0.417000       1.00800           0
     32158 TIP3     4941     TIP3     H2       HT       0.417000       1.00800           0
     32159 TIP3     4942     TIP3     OH2      OT      -0.834000       15.9994           0
     32160 TIP3     4942     TIP3     H1       HT       0.417000       1.00800           0
     32161 TIP3     4942     TIP3     H2       HT       0.417000       1.00800           0
     32162 TIP3     4943     TIP3     OH2      OT      -0.834000       15.9994           0
     32163 TIP3     4943     TIP3     H1       HT       0.417000       1.00800           0
     32164 TIP3     4943     TIP3     H2       HT       0.417000       1.00800           0
     32165 TIP3     4944     TIP3     OH2      OT      -0.834000       15.9994           0
     32166 TIP3     4944     TIP3     H1       HT       0.417000       1.00800           0
     32167 TIP3     4944     TIP3     H2       HT       0.417000       1.00800           0
     32168 TIP3     4945     TIP3     OH2      OT      -0.834000       15.9994           0
     32169 TIP3     4945     TIP3     H1       HT       0.417000       1.00800           0
     32170 TIP3     4945     TIP3     H2       HT       0.417000       1.00800           0
     32171 TIP3     4946     TIP3     OH2      OT      -0.834000       15.9994           0
     32172 TIP3     4946     TIP3     H1       HT       0.417000       1.00800           0
     32173 TIP3     4946     TIP3     H2       HT       0.417000       1.00800           0
     32174 TIP3     4947     TIP3     OH2      OT      -0.834000       15.9994           0
     32175 TIP3     4947     TIP3     H1       HT       0.417000       1.00800           0
     32176 TIP3     4947     TIP3     H2       HT       0.417000       1.00800           0
     32177 TIP3     4948     TIP3     OH2      OT      -0.834000       15.9994           0
     32178 TIP3     4948     TIP3     H1       HT       0.417000       1.00800           0
     32179 TIP3     4948     TIP3     H2       HT       0.417000       1.00800           0
     32180 TIP3     4949     TIP3     OH2      OT      -0.834000       15.9994           0
     32181 TIP3     4949     TIP3     H1       HT       0.417000       1.00800           0
     32182 TIP3     4949     TIP3     H2       HT       0.417000       1.00800           0
     32183 TIP3     4950     TIP3     OH2      OT      -0.834000       15.9994           0
     32184 TIP3     4950     TIP3     H1       HT       0.417000       1.00800           0
     32185 TIP3     4950     TIP3     H2       HT       0.417000       1.00800           0
     32186 TIP3     4951     TIP3     OH2      OT      -0.834000       15.9994           0
     32187 TIP3     4951     TIP3     H1       HT       0.417000       1.00800           0
     32188 TIP3     4951     TIP3     H2       HT       0.417000       1.00800           0
     32189 TIP3     4952     TIP3     OH2      OT      -0.834000       15.9994           0
     32190 TIP3     4952     TIP3     H1       HT       0.417000       1.00800           0
     32191 TIP3     4952     TIP3     H2       HT       0.417000       1.00800           0
     32192 TIP3     4953     TIP3     OH2      OT      -0.834000       15.9994           0
     32193 TIP3     4953     TIP3     H1       HT       0.417000       1.00800           0
     32194 TIP3     4953     TIP3     H2       HT       0.417000       1.00800           0
     32195 TIP3     4954     TIP3     OH2      OT      -0.834000       15.9994           0
     32196 TIP3     4954     TIP3     H1       HT       0.417000       1.00800           0
     32197 TIP3     4954     TIP3     H2       HT       0.417000       1.00800           0
     32198 TIP3     4955     TIP3     OH2      OT      -0.834000       15.9994           0
     32199 TIP3     4955     TIP3     H1       HT       0.417000       1.00800           0
     32200 TIP3     4955     TIP3     H2       HT       0.417000       1.00800           0
     32201 TIP3     4956     TIP3     OH2      OT      -0.834000       15.9994           0
     32202 TIP3     4956     TIP3     H1       HT       0.417000       1.00800           0
     32203 TIP3     4956     TIP3     H2       HT       0.417000       1.00800           0
     32204 TIP3     4957     TIP3     OH2      OT      -0.834000       15.9994           0
     32205 TIP3     4957     TIP3     H1       HT       0.417000       1.00800           0
     32206 TIP3     4957     TIP3     H2       HT       0.417000       1.00800           0
     32207 TIP3     4958     TIP3     OH2      OT      -0.834000       15.9994           0
     32208 TIP3     4958     TIP3     H1       HT       0.417000       1.00800           0
     32209 TIP3     4958     TIP3     H2       HT       0.417000       1.00800           0
     32210 TIP3     4959     TIP3     OH2      OT      -0.834000       15.9994           0
     32211 TIP3     4959     TIP3     H1       HT       0.417000       1.00800           0
     32212 TIP3     4959     TIP3     H2       HT       0.417000       1.00800           0
     32213 TIP3     4960     TIP3     OH2      OT      -0.834000       15.9994           0
     32214 TIP3     4960     TIP3     H1       HT       0.417000       1.00800           0
     32215 TIP3     4960     TIP3     H2       HT       0.417000       1.00800           0
     32216 TIP3     4961     TIP3     OH2      OT      -0.834000       15.9994           0
     32217 TIP3     4961     TIP3     H1       HT       0.417000       1.00800           0
     32218 TIP3     4961     TIP3     H2       HT       0.417000       1.00800           0
     32219 TIP3     4962     TIP3     OH2      OT      -0.834000       15.9994           0
     32220 TIP3     4962     TIP3     H1       HT       0.417000       1.00800           0
     32221 TIP3     4962     TIP3     H2       HT       0.417000       1.00800           0
     32222 TIP3     4963     TIP3     OH2      OT      -0.834000       15.9994           0
     32223 TIP3     4963     TIP3     H1       HT       0.417000       1.00800           0
     32224 TIP3     4963     TIP3     H2       HT       0.417000       1.00800           0
     32225 TIP3     4964     TIP3     OH2      OT      -0.834000       15.9994           0
     32226 TIP3     4964     TIP3     H1       HT       0.417000       1.00800           0
     32227 TIP3     4964     TIP3     H2       HT       0.417000       1.00800           0
     32228 TIP3     4965     TIP3     OH2      OT      -0.834000       15.9994           0
     32229 TIP3     4965     TIP3     H1       HT       0.417000       1.00800           0
     32230 TIP3     4965     TIP3     H2       HT       0.417000       1.00800           0
     32231 TIP3     4966     TIP3     OH2      OT      -0.834000       15.9994           0
     32232 TIP3     4966     TIP3     H1       HT       0.417000       1.00800           0
     32233 TIP3     4966     TIP3     H2       HT       0.417000       1.00800           0
     32234 TIP3     4967     TIP3     OH2      OT      -0.834000       15.9994           0
     32235 TIP3     4967     TIP3     H1       HT       0.417000       1.00800           0
     32236 TIP3     4967     TIP3     H2       HT       0.417000       1.00800           0
     32237 TIP3     4968     TIP3     OH2      OT      -0.834000       15.9994           0
     32238 TIP3     4968     TIP3     H1       HT       0.417000       1.00800           0
     32239 TIP3     4968     TIP3     H2       HT       0.417000       1.00800           0
     32240 TIP3     4969     TIP3     OH2      OT      -0.834000       15.9994           0
     32241 TIP3     4969     TIP3     H1       HT       0.417000       1.00800           0
     32242 TIP3     4969     TIP3     H2       HT       0.417000       1.00800           0
     32243 TIP3     4970     TIP3     OH2      OT      -0.834000       15.9994           0
     32244 TIP3     4970     TIP3     H1       HT       0.417000       1.00800           0
     32245 TIP3     4970     TIP3     H2       HT       0.417000       1.00800           0
     32246 TIP3     4971     TIP3     OH2      OT      -0.834000       15.9994           0
     32247 TIP3     4971     TIP3     H1       HT       0.417000       1.00800           0
     32248 TIP3     4971     TIP3     H2       HT       0.417000       1.00800           0
     32249 TIP3     4972     TIP3     OH2      OT      -0.834000       15.9994           0
     32250 TIP3     4972     TIP3     H1       HT       0.417000       1.00800           0
     32251 TIP3     4972     TIP3     H2       HT       0.417000       1.00800           0
     32252 TIP3     4973     TIP3     OH2      OT      -0.834000       15.9994           0
     32253 TIP3     4973     TIP3     H1       HT       0.417000       1.00800           0
     32254 TIP3     4973     TIP3     H2       HT       0.417000       1.00800           0
     32255 TIP3     4974     TIP3     OH2      OT      -0.834000       15.9994           0
     32256 TIP3     4974     TIP3     H1       HT       0.417000       1.00800           0
     32257 TIP3     4974     TIP3     H2       HT       0.417000       1.00800           0
     32258 TIP3     4975     TIP3     OH2      OT      -0.834000       15.9994           0
     32259 TIP3     4975     TIP3     H1       HT       0.417000       1.00800           0
     32260 TIP3     4975     TIP3     H2       HT       0.417000       1.00800           0
     32261 TIP3     4976     TIP3     OH2      OT      -0.834000       15.9994           0
     32262 TIP3     4976     TIP3     H1       HT       0.417000       1.00800           0
     32263 TIP3     4976     TIP3     H2       HT       0.417000       1.00800           0
     32264 TIP3     4977     TIP3     OH2      OT      -0.834000       15.9994           0
     32265 TIP3     4977     TIP3     H1       HT       0.417000       1.00800           0
     32266 TIP3     4977     TIP3     H2       HT       0.417000       1.00800           0
     32267 TIP3     4978     TIP3     OH2      OT      -0.834000       15.9994           0
     32268 TIP3     4978     TIP3     H1       HT       0.417000       1.00800           0
     32269 TIP3     4978     TIP3     H2       HT       0.417000       1.00800           0
     32270 TIP3     4979     TIP3     OH2      OT      -0.834000       15.9994           0
     32271 TIP3     4979     TIP3     H1       HT       0.417000       1.00800           0
     32272 TIP3     4979     TIP3     H2       HT       0.417000       1.00800           0
     32273 TIP3     4980     TIP3     OH2      OT      -0.834000       15.9994           0
     32274 TIP3     4980     TIP3     H1       HT       0.417000       1.00800           0
     32275 TIP3     4980     TIP3     H2       HT       0.417000       1.00800           0
     32276 TIP3     4981     TIP3     OH2      OT      -0.834000       15.9994           0
     32277 TIP3     4981     TIP3     H1       HT       0.417000       1.00800           0
     32278 TIP3     4981     TIP3     H2       HT       0.417000       1.00800           0
     32279 TIP3     4982     TIP3     OH2      OT      -0.834000       15.9994           0
     32280 TIP3     4982     TIP3     H1       HT       0.417000       1.00800           0
     32281 TIP3     4982     TIP3     H2       HT       0.417000       1.00800           0
     32282 TIP3     4983     TIP3     OH2      OT      -0.834000       15.9994           0
     32283 TIP3     4983     TIP3     H1       HT       0.417000       1.00800           0
     32284 TIP3     4983     TIP3     H2       HT       0.417000       1.00800           0
     32285 TIP3     4984     TIP3     OH2      OT      -0.834000       15.9994           0
     32286 TIP3     4984     TIP3     H1       HT       0.417000       1.00800           0
     32287 TIP3     4984     TIP3     H2       HT       0.417000       1.00800           0
     32288 TIP3     4985     TIP3     OH2      OT      -0.834000       15.9994           0
     32289 TIP3     4985     TIP3     H1       HT       0.417000       1.00800           0
     32290 TIP3     4985     TIP3     H2       HT       0.417000       1.00800           0
     32291 TIP3     4986     TIP3     OH2      OT      -0.834000       15.9994           0
     32292 TIP3     4986     TIP3     H1       HT       0.417000       1.00800           0
     32293 TIP3     4986     TIP3     H2       HT       0.417000       1.00800           0
     32294 TIP3     4987     TIP3     OH2      OT      -0.834000       15.9994           0
     32295 TIP3     4987     TIP3     H1       HT       0.417000       1.00800           0
     32296 TIP3     4987     TIP3     H2       HT       0.417000       1.00800           0
     32297 TIP3     4988     TIP3     OH2      OT      -0.834000       15.9994           0
     32298 TIP3     4988     TIP3     H1       HT       0.417000       1.00800           0
     32299 TIP3     4988     TIP3     H2       HT       0.417000       1.00800           0
     32300 TIP3     4989     TIP3     OH2      OT      -0.834000       15.9994           0
     32301 TIP3     4989     TIP3     H1       HT       0.417000       1.00800           0
     32302 TIP3     4989     TIP3     H2       HT       0.417000       1.00800           0
     32303 TIP3     4990     TIP3     OH2      OT      -0.834000       15.9994           0
     32304 TIP3     4990     TIP3     H1       HT       0.417000       1.00800           0
     32305 TIP3     4990     TIP3     H2       HT       0.417000       1.00800           0
     32306 TIP3     4991     TIP3     OH2      OT      -0.834000       15.9994           0
     32307 TIP3     4991     TIP3     H1       HT       0.417000       1.00800           0
     32308 TIP3     4991     TIP3     H2       HT       0.417000       1.00800           0
     32309 TIP3     4992     TIP3     OH2      OT      -0.834000       15.9994           0
     32310 TIP3     4992     TIP3     H1       HT       0.417000       1.00800           0
     32311 TIP3     4992     TIP3     H2       HT       0.417000       1.00800           0
     32312 TIP3     4993     TIP3     OH2      OT      -0.834000       15.9994           0
     32313 TIP3     4993     TIP3     H1       HT       0.417000       1.00800           0
     32314 TIP3     4993     TIP3     H2       HT       0.417000       1.00800           0
     32315 TIP3     4994     TIP3     OH2      OT      -0.834000       15.9994           0
     32316 TIP3     4994     TIP3     H1       HT       0.417000       1.00800           0
     32317 TIP3     4994     TIP3     H2       HT       0.417000       1.00800           0
     32318 TIP3     4995     TIP3     OH2      OT      -0.834000       15.9994           0
     32319 TIP3     4995     TIP3     H1       HT       0.417000       1.00800           0
     32320 TIP3     4995     TIP3     H2       HT       0.417000       1.00800           0
     32321 TIP3     4996     TIP3     OH2      OT      -0.834000       15.9994           0
     32322 TIP3     4996     TIP3     H1       HT       0.417000       1.00800           0
     32323 TIP3     4996     TIP3     H2       HT       0.417000       1.00800           0
     32324 TIP3     4997     TIP3     OH2      OT      -0.834000       15.9994           0
     32325 TIP3     4997     TIP3     H1       HT       0.417000       1.00800           0
     32326 TIP3     4997     TIP3     H2       HT       0.417000       1.00800           0
     32327 TIP3     4998     TIP3     OH2      OT      -0.834000       15.9994           0
     32328 TIP3     4998     TIP3     H1       HT       0.417000       1.00800           0
     32329 TIP3     4998     TIP3     H2       HT       0.417000       1.00800           0
     32330 TIP3     4999     TIP3     OH2      OT      -0.834000       15.9994           0
     32331 TIP3     4999     TIP3     H1       HT       0.417000       1.00800           0
     32332 TIP3     4999     TIP3     H2       HT       0.417000       1.00800           0
     32333 TIP3     5000     TIP3     OH2      OT      -0.834000       15.9994           0
     32334 TIP3     5000     TIP3     H1       HT       0.417000       1.00800           0
     32335 TIP3     5000     TIP3     H2       HT       0.417000       1.00800           0
     32336 TIP3     5001     TIP3     OH2      OT      -0.834000       15.9994           0
     32337 TIP3     5001     TIP3     H1       HT       0.417000       1.00800           0
     32338 TIP3     5001     TIP3     H2       HT       0.417000       1.00800           0
     32339 TIP3     5002     TIP3     OH2      OT      -0.834000       15.9994           0
     32340 TIP3     5002     TIP3     H1       HT       0.417000       1.00800           0
     32341 TIP3     5002     TIP3     H2       HT       0.417000       1.00800           0
     32342 TIP3     5003     TIP3     OH2      OT      -0.834000       15.9994           0
     32343 TIP3     5003     TIP3     H1       HT       0.417000       1.00800           0
     32344 TIP3     5003     TIP3     H2       HT       0.417000       1.00800           0
     32345 TIP3     5004     TIP3     OH2      OT      -0.834000       15.9994           0
     32346 TIP3     5004     TIP3     H1       HT       0.417000       1.00800           0
     32347 TIP3     5004     TIP3     H2       HT       0.417000       1.00800           0
     32348 TIP3     5005     TIP3     OH2      OT      -0.834000       15.9994           0
     32349 TIP3     5005     TIP3     H1       HT       0.417000       1.00800           0
     32350 TIP3     5005     TIP3     H2       HT       0.417000       1.00800           0
     32351 TIP3     5006     TIP3     OH2      OT      -0.834000       15.9994           0
     32352 TIP3     5006     TIP3     H1       HT       0.417000       1.00800           0
     32353 TIP3     5006     TIP3     H2       HT       0.417000       1.00800           0
     32354 TIP3     5007     TIP3     OH2      OT      -0.834000       15.9994           0
     32355 TIP3     5007     TIP3     H1       HT       0.417000       1.00800           0
     32356 TIP3     5007     TIP3     H2       HT       0.417000       1.00800           0
     32357 TIP3     5008     TIP3     OH2      OT      -0.834000       15.9994           0
     32358 TIP3     5008     TIP3     H1       HT       0.417000       1.00800           0
     32359 TIP3     5008     TIP3     H2       HT       0.417000       1.00800           0
     32360 TIP3     5009     TIP3     OH2      OT      -0.834000       15.9994           0
     32361 TIP3     5009     TIP3     H1       HT       0.417000       1.00800           0
     32362 TIP3     5009     TIP3     H2       HT       0.417000       1.00800           0
     32363 TIP3     5010     TIP3     OH2      OT      -0.834000       15.9994           0
     32364 TIP3     5010     TIP3     H1       HT       0.417000       1.00800           0
     32365 TIP3     5010     TIP3     H2       HT       0.417000       1.00800           0
     32366 TIP3     5011     TIP3     OH2      OT      -0.834000       15.9994           0
     32367 TIP3     5011     TIP3     H1       HT       0.417000       1.00800           0
     32368 TIP3     5011     TIP3     H2       HT       0.417000       1.00800           0
     32369 TIP3     5012     TIP3     OH2      OT      -0.834000       15.9994           0
     32370 TIP3     5012     TIP3     H1       HT       0.417000       1.00800           0
     32371 TIP3     5012     TIP3     H2       HT       0.417000       1.00800           0
     32372 TIP3     5013     TIP3     OH2      OT      -0.834000       15.9994           0
     32373 TIP3     5013     TIP3     H1       HT       0.417000       1.00800           0
     32374 TIP3     5013     TIP3     H2       HT       0.417000       1.00800           0
     32375 TIP3     5014     TIP3     OH2      OT      -0.834000       15.9994           0
     32376 TIP3     5014     TIP3     H1       HT       0.417000       1.00800           0
     32377 TIP3     5014     TIP3     H2       HT       0.417000       1.00800           0
     32378 TIP3     5015     TIP3     OH2      OT      -0.834000       15.9994           0
     32379 TIP3     5015     TIP3     H1       HT       0.417000       1.00800           0
     32380 TIP3     5015     TIP3     H2       HT       0.417000       1.00800           0
     32381 TIP3     5016     TIP3     OH2      OT      -0.834000       15.9994           0
     32382 TIP3     5016     TIP3     H1       HT       0.417000       1.00800           0
     32383 TIP3     5016     TIP3     H2       HT       0.417000       1.00800           0
     32384 TIP3     5017     TIP3     OH2      OT      -0.834000       15.9994           0
     32385 TIP3     5017     TIP3     H1       HT       0.417000       1.00800           0
     32386 TIP3     5017     TIP3     H2       HT       0.417000       1.00800           0
     32387 TIP3     5018     TIP3     OH2      OT      -0.834000       15.9994           0
     32388 TIP3     5018     TIP3     H1       HT       0.417000       1.00800           0
     32389 TIP3     5018     TIP3     H2       HT       0.417000       1.00800           0
     32390 TIP3     5019     TIP3     OH2      OT      -0.834000       15.9994           0
     32391 TIP3     5019     TIP3     H1       HT       0.417000       1.00800           0
     32392 TIP3     5019     TIP3     H2       HT       0.417000       1.00800           0
     32393 TIP3     5020     TIP3     OH2      OT      -0.834000       15.9994           0
     32394 TIP3     5020     TIP3     H1       HT       0.417000       1.00800           0
     32395 TIP3     5020     TIP3     H2       HT       0.417000       1.00800           0
     32396 TIP3     5021     TIP3     OH2      OT      -0.834000       15.9994           0
     32397 TIP3     5021     TIP3     H1       HT       0.417000       1.00800           0
     32398 TIP3     5021     TIP3     H2       HT       0.417000       1.00800           0
     32399 TIP3     5022     TIP3     OH2      OT      -0.834000       15.9994           0
     32400 TIP3     5022     TIP3     H1       HT       0.417000       1.00800           0
     32401 TIP3     5022     TIP3     H2       HT       0.417000       1.00800           0
     32402 TIP3     5023     TIP3     OH2      OT      -0.834000       15.9994           0
     32403 TIP3     5023     TIP3     H1       HT       0.417000       1.00800           0
     32404 TIP3     5023     TIP3     H2       HT       0.417000       1.00800           0
     32405 TIP3     5024     TIP3     OH2      OT      -0.834000       15.9994           0
     32406 TIP3     5024     TIP3     H1       HT       0.417000       1.00800           0
     32407 TIP3     5024     TIP3     H2       HT       0.417000       1.00800           0
     32408 TIP3     5025     TIP3     OH2      OT      -0.834000       15.9994           0
     32409 TIP3     5025     TIP3     H1       HT       0.417000       1.00800           0
     32410 TIP3     5025     TIP3     H2       HT       0.417000       1.00800           0
     32411 TIP3     5026     TIP3     OH2      OT      -0.834000       15.9994           0
     32412 TIP3     5026     TIP3     H1       HT       0.417000       1.00800           0
     32413 TIP3     5026     TIP3     H2       HT       0.417000       1.00800           0
     32414 TIP3     5027     TIP3     OH2      OT      -0.834000       15.9994           0
     32415 TIP3     5027     TIP3     H1       HT       0.417000       1.00800           0
     32416 TIP3     5027     TIP3     H2       HT       0.417000       1.00800           0
     32417 TIP3     5028     TIP3     OH2      OT      -0.834000       15.9994           0
     32418 TIP3     5028     TIP3     H1       HT       0.417000       1.00800           0
     32419 TIP3     5028     TIP3     H2       HT       0.417000       1.00800           0
     32420 TIP3     5029     TIP3     OH2      OT      -0.834000       15.9994           0
     32421 TIP3     5029     TIP3     H1       HT       0.417000       1.00800           0
     32422 TIP3     5029     TIP3     H2       HT       0.417000       1.00800           0
     32423 TIP3     5030     TIP3     OH2      OT      -0.834000       15.9994           0
     32424 TIP3     5030     TIP3     H1       HT       0.417000       1.00800           0
     32425 TIP3     5030     TIP3     H2       HT       0.417000       1.00800           0
     32426 TIP3     5031     TIP3     OH2      OT      -0.834000       15.9994           0
     32427 TIP3     5031     TIP3     H1       HT       0.417000       1.00800           0
     32428 TIP3     5031     TIP3     H2       HT       0.417000       1.00800           0
     32429 TIP3     5032     TIP3     OH2      OT      -0.834000       15.9994           0
     32430 TIP3     5032     TIP3     H1       HT       0.417000       1.00800           0
     32431 TIP3     5032     TIP3     H2       HT       0.417000       1.00800           0
     32432 TIP3     5033     TIP3     OH2      OT      -0.834000       15.9994           0
     32433 TIP3     5033     TIP3     H1       HT       0.417000       1.00800           0
     32434 TIP3     5033     TIP3     H2       HT       0.417000       1.00800           0
     32435 TIP3     5034     TIP3     OH2      OT      -0.834000       15.9994           0
     32436 TIP3     5034     TIP3     H1       HT       0.417000       1.00800           0
     32437 TIP3     5034     TIP3     H2       HT       0.417000       1.00800           0
     32438 TIP3     5035     TIP3     OH2      OT      -0.834000       15.9994           0
     32439 TIP3     5035     TIP3     H1       HT       0.417000       1.00800           0
     32440 TIP3     5035     TIP3     H2       HT       0.417000       1.00800           0
     32441 TIP3     5036     TIP3     OH2      OT      -0.834000       15.9994           0
     32442 TIP3     5036     TIP3     H1       HT       0.417000       1.00800           0
     32443 TIP3     5036     TIP3     H2       HT       0.417000       1.00800           0
     32444 TIP3     5037     TIP3     OH2      OT      -0.834000       15.9994           0
     32445 TIP3     5037     TIP3     H1       HT       0.417000       1.00800           0
     32446 TIP3     5037     TIP3     H2       HT       0.417000       1.00800           0
     32447 TIP3     5038     TIP3     OH2      OT      -0.834000       15.9994           0
     32448 TIP3     5038     TIP3     H1       HT       0.417000       1.00800           0
     32449 TIP3     5038     TIP3     H2       HT       0.417000       1.00800           0
     32450 TIP3     5039     TIP3     OH2      OT      -0.834000       15.9994           0
     32451 TIP3     5039     TIP3     H1       HT       0.417000       1.00800           0
     32452 TIP3     5039     TIP3     H2       HT       0.417000       1.00800           0
     32453 TIP3     5040     TIP3     OH2      OT      -0.834000       15.9994           0
     32454 TIP3     5040     TIP3     H1       HT       0.417000       1.00800           0
     32455 TIP3     5040     TIP3     H2       HT       0.417000       1.00800           0
     32456 TIP3     5041     TIP3     OH2      OT      -0.834000       15.9994           0
     32457 TIP3     5041     TIP3     H1       HT       0.417000       1.00800           0
     32458 TIP3     5041     TIP3     H2       HT       0.417000       1.00800           0
     32459 TIP3     5042     TIP3     OH2      OT      -0.834000       15.9994           0
     32460 TIP3     5042     TIP3     H1       HT       0.417000       1.00800           0
     32461 TIP3     5042     TIP3     H2       HT       0.417000       1.00800           0
     32462 TIP3     5043     TIP3     OH2      OT      -0.834000       15.9994           0
     32463 TIP3     5043     TIP3     H1       HT       0.417000       1.00800           0
     32464 TIP3     5043     TIP3     H2       HT       0.417000       1.00800           0
     32465 TIP3     5044     TIP3     OH2      OT      -0.834000       15.9994           0
     32466 TIP3     5044     TIP3     H1       HT       0.417000       1.00800           0
     32467 TIP3     5044     TIP3     H2       HT       0.417000       1.00800           0
     32468 TIP3     5045     TIP3     OH2      OT      -0.834000       15.9994           0
     32469 TIP3     5045     TIP3     H1       HT       0.417000       1.00800           0
     32470 TIP3     5045     TIP3     H2       HT       0.417000       1.00800           0
     32471 TIP3     5046     TIP3     OH2      OT      -0.834000       15.9994           0
     32472 TIP3     5046     TIP3     H1       HT       0.417000       1.00800           0
     32473 TIP3     5046     TIP3     H2       HT       0.417000       1.00800           0
     32474 TIP3     5047     TIP3     OH2      OT      -0.834000       15.9994           0
     32475 TIP3     5047     TIP3     H1       HT       0.417000       1.00800           0
     32476 TIP3     5047     TIP3     H2       HT       0.417000       1.00800           0
     32477 TIP3     5048     TIP3     OH2      OT      -0.834000       15.9994           0
     32478 TIP3     5048     TIP3     H1       HT       0.417000       1.00800           0
     32479 TIP3     5048     TIP3     H2       HT       0.417000       1.00800           0
     32480 TIP3     5049     TIP3     OH2      OT      -0.834000       15.9994           0
     32481 TIP3     5049     TIP3     H1       HT       0.417000       1.00800           0
     32482 TIP3     5049     TIP3     H2       HT       0.417000       1.00800           0
     32483 TIP3     5050     TIP3     OH2      OT      -0.834000       15.9994           0
     32484 TIP3     5050     TIP3     H1       HT       0.417000       1.00800           0
     32485 TIP3     5050     TIP3     H2       HT       0.417000       1.00800           0
     32486 TIP3     5051     TIP3     OH2      OT      -0.834000       15.9994           0
     32487 TIP3     5051     TIP3     H1       HT       0.417000       1.00800           0
     32488 TIP3     5051     TIP3     H2       HT       0.417000       1.00800           0
     32489 TIP3     5052     TIP3     OH2      OT      -0.834000       15.9994           0
     32490 TIP3     5052     TIP3     H1       HT       0.417000       1.00800           0
     32491 TIP3     5052     TIP3     H2       HT       0.417000       1.00800           0
     32492 TIP3     5053     TIP3     OH2      OT      -0.834000       15.9994           0
     32493 TIP3     5053     TIP3     H1       HT       0.417000       1.00800           0
     32494 TIP3     5053     TIP3     H2       HT       0.417000       1.00800           0
     32495 TIP3     5054     TIP3     OH2      OT      -0.834000       15.9994           0
     32496 TIP3     5054     TIP3     H1       HT       0.417000       1.00800           0
     32497 TIP3     5054     TIP3     H2       HT       0.417000       1.00800           0
     32498 TIP3     5055     TIP3     OH2      OT      -0.834000       15.9994           0
     32499 TIP3     5055     TIP3     H1       HT       0.417000       1.00800           0
     32500 TIP3     5055     TIP3     H2       HT       0.417000       1.00800           0
     32501 TIP3     5056     TIP3     OH2      OT      -0.834000       15.9994           0
     32502 TIP3     5056     TIP3     H1       HT       0.417000       1.00800           0
     32503 TIP3     5056     TIP3     H2       HT       0.417000       1.00800           0
     32504 TIP3     5057     TIP3     OH2      OT      -0.834000       15.9994           0
     32505 TIP3     5057     TIP3     H1       HT       0.417000       1.00800           0
     32506 TIP3     5057     TIP3     H2       HT       0.417000       1.00800           0
     32507 TIP3     5058     TIP3     OH2      OT      -0.834000       15.9994           0
     32508 TIP3     5058     TIP3     H1       HT       0.417000       1.00800           0
     32509 TIP3     5058     TIP3     H2       HT       0.417000       1.00800           0
     32510 TIP3     5059     TIP3     OH2      OT      -0.834000       15.9994           0
     32511 TIP3     5059     TIP3     H1       HT       0.417000       1.00800           0
     32512 TIP3     5059     TIP3     H2       HT       0.417000       1.00800           0
     32513 TIP3     5060     TIP3     OH2      OT      -0.834000       15.9994           0
     32514 TIP3     5060     TIP3     H1       HT       0.417000       1.00800           0
     32515 TIP3     5060     TIP3     H2       HT       0.417000       1.00800           0
     32516 TIP3     5061     TIP3     OH2      OT      -0.834000       15.9994           0
     32517 TIP3     5061     TIP3     H1       HT       0.417000       1.00800           0
     32518 TIP3     5061     TIP3     H2       HT       0.417000       1.00800           0
     32519 TIP3     5062     TIP3     OH2      OT      -0.834000       15.9994           0
     32520 TIP3     5062     TIP3     H1       HT       0.417000       1.00800           0
     32521 TIP3     5062     TIP3     H2       HT       0.417000       1.00800           0
     32522 TIP3     5063     TIP3     OH2      OT      -0.834000       15.9994           0
     32523 TIP3     5063     TIP3     H1       HT       0.417000       1.00800           0
     32524 TIP3     5063     TIP3     H2       HT       0.417000       1.00800           0
     32525 TIP3     5064     TIP3     OH2      OT      -0.834000       15.9994           0
     32526 TIP3     5064     TIP3     H1       HT       0.417000       1.00800           0
     32527 TIP3     5064     TIP3     H2       HT       0.417000       1.00800           0
     32528 TIP3     5065     TIP3     OH2      OT      -0.834000       15.9994           0
     32529 TIP3     5065     TIP3     H1       HT       0.417000       1.00800           0
     32530 TIP3     5065     TIP3     H2       HT       0.417000       1.00800           0
     32531 TIP3     5066     TIP3     OH2      OT      -0.834000       15.9994           0
     32532 TIP3     5066     TIP3     H1       HT       0.417000       1.00800           0
     32533 TIP3     5066     TIP3     H2       HT       0.417000       1.00800           0
     32534 TIP3     5067     TIP3     OH2      OT      -0.834000       15.9994           0
     32535 TIP3     5067     TIP3     H1       HT       0.417000       1.00800           0
     32536 TIP3     5067     TIP3     H2       HT       0.417000       1.00800           0
     32537 TIP3     5068     TIP3     OH2      OT      -0.834000       15.9994           0
     32538 TIP3     5068     TIP3     H1       HT       0.417000       1.00800           0
     32539 TIP3     5068     TIP3     H2       HT       0.417000       1.00800           0
     32540 TIP3     5069     TIP3     OH2      OT      -0.834000       15.9994           0
     32541 TIP3     5069     TIP3     H1       HT       0.417000       1.00800           0
     32542 TIP3     5069     TIP3     H2       HT       0.417000       1.00800           0
     32543 TIP3     5070     TIP3     OH2      OT      -0.834000       15.9994           0
     32544 TIP3     5070     TIP3     H1       HT       0.417000       1.00800           0
     32545 TIP3     5070     TIP3     H2       HT       0.417000       1.00800           0
     32546 TIP3     5071     TIP3     OH2      OT      -0.834000       15.9994           0
     32547 TIP3     5071     TIP3     H1       HT       0.417000       1.00800           0
     32548 TIP3     5071     TIP3     H2       HT       0.417000       1.00800           0
     32549 TIP3     5072     TIP3     OH2      OT      -0.834000       15.9994           0
     32550 TIP3     5072     TIP3     H1       HT       0.417000       1.00800           0
     32551 TIP3     5072     TIP3     H2       HT       0.417000       1.00800           0
     32552 TIP3     5073     TIP3     OH2      OT      -0.834000       15.9994           0
     32553 TIP3     5073     TIP3     H1       HT       0.417000       1.00800           0
     32554 TIP3     5073     TIP3     H2       HT       0.417000       1.00800           0
     32555 TIP3     5074     TIP3     OH2      OT      -0.834000       15.9994           0
     32556 TIP3     5074     TIP3     H1       HT       0.417000       1.00800           0
     32557 TIP3     5074     TIP3     H2       HT       0.417000       1.00800           0
     32558 TIP3     5075     TIP3     OH2      OT      -0.834000       15.9994           0
     32559 TIP3     5075     TIP3     H1       HT       0.417000       1.00800           0
     32560 TIP3     5075     TIP3     H2       HT       0.417000       1.00800           0
     32561 TIP3     5076     TIP3     OH2      OT      -0.834000       15.9994           0
     32562 TIP3     5076     TIP3     H1       HT       0.417000       1.00800           0
     32563 TIP3     5076     TIP3     H2       HT       0.417000       1.00800           0
     32564 TIP3     5077     TIP3     OH2      OT      -0.834000       15.9994           0
     32565 TIP3     5077     TIP3     H1       HT       0.417000       1.00800           0
     32566 TIP3     5077     TIP3     H2       HT       0.417000       1.00800           0
     32567 TIP3     5078     TIP3     OH2      OT      -0.834000       15.9994           0
     32568 TIP3     5078     TIP3     H1       HT       0.417000       1.00800           0
     32569 TIP3     5078     TIP3     H2       HT       0.417000       1.00800           0
     32570 TIP3     5079     TIP3     OH2      OT      -0.834000       15.9994           0
     32571 TIP3     5079     TIP3     H1       HT       0.417000       1.00800           0
     32572 TIP3     5079     TIP3     H2       HT       0.417000       1.00800           0
     32573 TIP3     5080     TIP3     OH2      OT      -0.834000       15.9994           0
     32574 TIP3     5080     TIP3     H1       HT       0.417000       1.00800           0
     32575 TIP3     5080     TIP3     H2       HT       0.417000       1.00800           0
     32576 TIP3     5081     TIP3     OH2      OT      -0.834000       15.9994           0
     32577 TIP3     5081     TIP3     H1       HT       0.417000       1.00800           0
     32578 TIP3     5081     TIP3     H2       HT       0.417000       1.00800           0
     32579 TIP3     5082     TIP3     OH2      OT      -0.834000       15.9994           0
     32580 TIP3     5082     TIP3     H1       HT       0.417000       1.00800           0
     32581 TIP3     5082     TIP3     H2       HT       0.417000       1.00800           0
     32582 TIP3     5083     TIP3     OH2      OT      -0.834000       15.9994           0
     32583 TIP3     5083     TIP3     H1       HT       0.417000       1.00800           0
     32584 TIP3     5083     TIP3     H2       HT       0.417000       1.00800           0
     32585 TIP3     5084     TIP3     OH2      OT      -0.834000       15.9994           0
     32586 TIP3     5084     TIP3     H1       HT       0.417000       1.00800           0
     32587 TIP3     5084     TIP3     H2       HT       0.417000       1.00800           0
     32588 TIP3     5085     TIP3     OH2      OT      -0.834000       15.9994           0
     32589 TIP3     5085     TIP3     H1       HT       0.417000       1.00800           0
     32590 TIP3     5085     TIP3     H2       HT       0.417000       1.00800           0
     32591 TIP3     5086     TIP3     OH2      OT      -0.834000       15.9994           0
     32592 TIP3     5086     TIP3     H1       HT       0.417000       1.00800           0
     32593 TIP3     5086     TIP3     H2       HT       0.417000       1.00800           0
     32594 TIP3     5087     TIP3     OH2      OT      -0.834000       15.9994           0
     32595 TIP3     5087     TIP3     H1       HT       0.417000       1.00800           0
     32596 TIP3     5087     TIP3     H2       HT       0.417000       1.00800           0
     32597 TIP3     5088     TIP3     OH2      OT      -0.834000       15.9994           0
     32598 TIP3     5088     TIP3     H1       HT       0.417000       1.00800           0
     32599 TIP3     5088     TIP3     H2       HT       0.417000       1.00800           0
     32600 TIP3     5089     TIP3     OH2      OT      -0.834000       15.9994           0
     32601 TIP3     5089     TIP3     H1       HT       0.417000       1.00800           0
     32602 TIP3     5089     TIP3     H2       HT       0.417000       1.00800           0
     32603 TIP3     5090     TIP3     OH2      OT      -0.834000       15.9994           0
     32604 TIP3     5090     TIP3     H1       HT       0.417000       1.00800           0
     32605 TIP3     5090     TIP3     H2       HT       0.417000       1.00800           0
     32606 TIP3     5091     TIP3     OH2      OT      -0.834000       15.9994           0
     32607 TIP3     5091     TIP3     H1       HT       0.417000       1.00800           0
     32608 TIP3     5091     TIP3     H2       HT       0.417000       1.00800           0
     32609 TIP3     5092     TIP3     OH2      OT      -0.834000       15.9994           0
     32610 TIP3     5092     TIP3     H1       HT       0.417000       1.00800           0
     32611 TIP3     5092     TIP3     H2       HT       0.417000       1.00800           0
     32612 TIP3     5093     TIP3     OH2      OT      -0.834000       15.9994           0
     32613 TIP3     5093     TIP3     H1       HT       0.417000       1.00800           0
     32614 TIP3     5093     TIP3     H2       HT       0.417000       1.00800           0
     32615 TIP3     5094     TIP3     OH2      OT      -0.834000       15.9994           0
     32616 TIP3     5094     TIP3     H1       HT       0.417000       1.00800           0
     32617 TIP3     5094     TIP3     H2       HT       0.417000       1.00800           0
     32618 TIP3     5095     TIP3     OH2      OT      -0.834000       15.9994           0
     32619 TIP3     5095     TIP3     H1       HT       0.417000       1.00800           0
     32620 TIP3     5095     TIP3     H2       HT       0.417000       1.00800           0
     32621 TIP3     5096     TIP3     OH2      OT      -0.834000       15.9994           0
     32622 TIP3     5096     TIP3     H1       HT       0.417000       1.00800           0
     32623 TIP3     5096     TIP3     H2       HT       0.417000       1.00800           0
     32624 TIP3     5097     TIP3     OH2      OT      -0.834000       15.9994           0
     32625 TIP3     5097     TIP3     H1       HT       0.417000       1.00800           0
     32626 TIP3     5097     TIP3     H2       HT       0.417000       1.00800           0
     32627 TIP3     5098     TIP3     OH2      OT      -0.834000       15.9994           0
     32628 TIP3     5098     TIP3     H1       HT       0.417000       1.00800           0
     32629 TIP3     5098     TIP3     H2       HT       0.417000       1.00800           0
     32630 TIP3     5099     TIP3     OH2      OT      -0.834000       15.9994           0
     32631 TIP3     5099     TIP3     H1       HT       0.417000       1.00800           0
     32632 TIP3     5099     TIP3     H2       HT       0.417000       1.00800           0
     32633 TIP3     5100     TIP3     OH2      OT      -0.834000       15.9994           0
     32634 TIP3     5100     TIP3     H1       HT       0.417000       1.00800           0
     32635 TIP3     5100     TIP3     H2       HT       0.417000       1.00800           0
     32636 TIP3     5101     TIP3     OH2      OT      -0.834000       15.9994           0
     32637 TIP3     5101     TIP3     H1       HT       0.417000       1.00800           0
     32638 TIP3     5101     TIP3     H2       HT       0.417000       1.00800           0
     32639 TIP3     5102     TIP3     OH2      OT      -0.834000       15.9994           0
     32640 TIP3     5102     TIP3     H1       HT       0.417000       1.00800           0
     32641 TIP3     5102     TIP3     H2       HT       0.417000       1.00800           0
     32642 TIP3     5103     TIP3     OH2      OT      -0.834000       15.9994           0
     32643 TIP3     5103     TIP3     H1       HT       0.417000       1.00800           0
     32644 TIP3     5103     TIP3     H2       HT       0.417000       1.00800           0
     32645 TIP3     5104     TIP3     OH2      OT      -0.834000       15.9994           0
     32646 TIP3     5104     TIP3     H1       HT       0.417000       1.00800           0
     32647 TIP3     5104     TIP3     H2       HT       0.417000       1.00800           0
     32648 TIP3     5105     TIP3     OH2      OT      -0.834000       15.9994           0
     32649 TIP3     5105     TIP3     H1       HT       0.417000       1.00800           0
     32650 TIP3     5105     TIP3     H2       HT       0.417000       1.00800           0
     32651 TIP3     5106     TIP3     OH2      OT      -0.834000       15.9994           0
     32652 TIP3     5106     TIP3     H1       HT       0.417000       1.00800           0
     32653 TIP3     5106     TIP3     H2       HT       0.417000       1.00800           0
     32654 TIP3     5107     TIP3     OH2      OT      -0.834000       15.9994           0
     32655 TIP3     5107     TIP3     H1       HT       0.417000       1.00800           0
     32656 TIP3     5107     TIP3     H2       HT       0.417000       1.00800           0
     32657 TIP3     5108     TIP3     OH2      OT      -0.834000       15.9994           0
     32658 TIP3     5108     TIP3     H1       HT       0.417000       1.00800           0
     32659 TIP3     5108     TIP3     H2       HT       0.417000       1.00800           0
     32660 TIP3     5109     TIP3     OH2      OT      -0.834000       15.9994           0
     32661 TIP3     5109     TIP3     H1       HT       0.417000       1.00800           0
     32662 TIP3     5109     TIP3     H2       HT       0.417000       1.00800           0
     32663 TIP3     5110     TIP3     OH2      OT      -0.834000       15.9994           0
     32664 TIP3     5110     TIP3     H1       HT       0.417000       1.00800           0
     32665 TIP3     5110     TIP3     H2       HT       0.417000       1.00800           0
     32666 TIP3     5111     TIP3     OH2      OT      -0.834000       15.9994           0
     32667 TIP3     5111     TIP3     H1       HT       0.417000       1.00800           0
     32668 TIP3     5111     TIP3     H2       HT       0.417000       1.00800           0
     32669 TIP3     5112     TIP3     OH2      OT      -0.834000       15.9994           0
     32670 TIP3     5112     TIP3     H1       HT       0.417000       1.00800           0
     32671 TIP3     5112     TIP3     H2       HT       0.417000       1.00800           0
     32672 TIP3     5113     TIP3     OH2      OT      -0.834000       15.9994           0
     32673 TIP3     5113     TIP3     H1       HT       0.417000       1.00800           0
     32674 TIP3     5113     TIP3     H2       HT       0.417000       1.00800           0
     32675 TIP3     5114     TIP3     OH2      OT      -0.834000       15.9994           0
     32676 TIP3     5114     TIP3     H1       HT       0.417000       1.00800           0
     32677 TIP3     5114     TIP3     H2       HT       0.417000       1.00800           0
     32678 TIP3     5115     TIP3     OH2      OT      -0.834000       15.9994           0
     32679 TIP3     5115     TIP3     H1       HT       0.417000       1.00800           0
     32680 TIP3     5115     TIP3     H2       HT       0.417000       1.00800           0
     32681 TIP3     5116     TIP3     OH2      OT      -0.834000       15.9994           0
     32682 TIP3     5116     TIP3     H1       HT       0.417000       1.00800           0
     32683 TIP3     5116     TIP3     H2       HT       0.417000       1.00800           0
     32684 TIP3     5117     TIP3     OH2      OT      -0.834000       15.9994           0
     32685 TIP3     5117     TIP3     H1       HT       0.417000       1.00800           0
     32686 TIP3     5117     TIP3     H2       HT       0.417000       1.00800           0
     32687 TIP3     5118     TIP3     OH2      OT      -0.834000       15.9994           0
     32688 TIP3     5118     TIP3     H1       HT       0.417000       1.00800           0
     32689 TIP3     5118     TIP3     H2       HT       0.417000       1.00800           0
     32690 TIP3     5119     TIP3     OH2      OT      -0.834000       15.9994           0
     32691 TIP3     5119     TIP3     H1       HT       0.417000       1.00800           0
     32692 TIP3     5119     TIP3     H2       HT       0.417000       1.00800           0
     32693 TIP3     5120     TIP3     OH2      OT      -0.834000       15.9994           0
     32694 TIP3     5120     TIP3     H1       HT       0.417000       1.00800           0
     32695 TIP3     5120     TIP3     H2       HT       0.417000       1.00800           0
     32696 TIP3     5121     TIP3     OH2      OT      -0.834000       15.9994           0
     32697 TIP3     5121     TIP3     H1       HT       0.417000       1.00800           0
     32698 TIP3     5121     TIP3     H2       HT       0.417000       1.00800           0
     32699 TIP3     5122     TIP3     OH2      OT      -0.834000       15.9994           0
     32700 TIP3     5122     TIP3     H1       HT       0.417000       1.00800           0
     32701 TIP3     5122     TIP3     H2       HT       0.417000       1.00800           0
     32702 TIP3     5123     TIP3     OH2      OT      -0.834000       15.9994           0
     32703 TIP3     5123     TIP3     H1       HT       0.417000       1.00800           0
     32704 TIP3     5123     TIP3     H2       HT       0.417000       1.00800           0
     32705 TIP3     5124     TIP3     OH2      OT      -0.834000       15.9994           0
     32706 TIP3     5124     TIP3     H1       HT       0.417000       1.00800           0
     32707 TIP3     5124     TIP3     H2       HT       0.417000       1.00800           0
     32708 TIP3     5125     TIP3     OH2      OT      -0.834000       15.9994           0
     32709 TIP3     5125     TIP3     H1       HT       0.417000       1.00800           0
     32710 TIP3     5125     TIP3     H2       HT       0.417000       1.00800           0
     32711 TIP3     5126     TIP3     OH2      OT      -0.834000       15.9994           0
     32712 TIP3     5126     TIP3     H1       HT       0.417000       1.00800           0
     32713 TIP3     5126     TIP3     H2       HT       0.417000       1.00800           0
     32714 TIP3     5127     TIP3     OH2      OT      -0.834000       15.9994           0
     32715 TIP3     5127     TIP3     H1       HT       0.417000       1.00800           0
     32716 TIP3     5127     TIP3     H2       HT       0.417000       1.00800           0
     32717 TIP3     5128     TIP3     OH2      OT      -0.834000       15.9994           0
     32718 TIP3     5128     TIP3     H1       HT       0.417000       1.00800           0
     32719 TIP3     5128     TIP3     H2       HT       0.417000       1.00800           0
     32720 TIP3     5129     TIP3     OH2      OT      -0.834000       15.9994           0
     32721 TIP3     5129     TIP3     H1       HT       0.417000       1.00800           0
     32722 TIP3     5129     TIP3     H2       HT       0.417000       1.00800           0
     32723 TIP3     5130     TIP3     OH2      OT      -0.834000       15.9994           0
     32724 TIP3     5130     TIP3     H1       HT       0.417000       1.00800           0
     32725 TIP3     5130     TIP3     H2       HT       0.417000       1.00800           0
     32726 TIP3     5131     TIP3     OH2      OT      -0.834000       15.9994           0
     32727 TIP3     5131     TIP3     H1       HT       0.417000       1.00800           0
     32728 TIP3     5131     TIP3     H2       HT       0.417000       1.00800           0
     32729 TIP3     5132     TIP3     OH2      OT      -0.834000       15.9994           0
     32730 TIP3     5132     TIP3     H1       HT       0.417000       1.00800           0
     32731 TIP3     5132     TIP3     H2       HT       0.417000       1.00800           0
     32732 TIP3     5133     TIP3     OH2      OT      -0.834000       15.9994           0
     32733 TIP3     5133     TIP3     H1       HT       0.417000       1.00800           0
     32734 TIP3     5133     TIP3     H2       HT       0.417000       1.00800           0
     32735 TIP3     5134     TIP3     OH2      OT      -0.834000       15.9994           0
     32736 TIP3     5134     TIP3     H1       HT       0.417000       1.00800           0
     32737 TIP3     5134     TIP3     H2       HT       0.417000       1.00800           0
     32738 TIP3     5135     TIP3     OH2      OT      -0.834000       15.9994           0
     32739 TIP3     5135     TIP3     H1       HT       0.417000       1.00800           0
     32740 TIP3     5135     TIP3     H2       HT       0.417000       1.00800           0
     32741 TIP3     5136     TIP3     OH2      OT      -0.834000       15.9994           0
     32742 TIP3     5136     TIP3     H1       HT       0.417000       1.00800           0
     32743 TIP3     5136     TIP3     H2       HT       0.417000       1.00800           0
     32744 TIP3     5137     TIP3     OH2      OT      -0.834000       15.9994           0
     32745 TIP3     5137     TIP3     H1       HT       0.417000       1.00800           0
     32746 TIP3     5137     TIP3     H2       HT       0.417000       1.00800           0
     32747 TIP3     5138     TIP3     OH2      OT      -0.834000       15.9994           0
     32748 TIP3     5138     TIP3     H1       HT       0.417000       1.00800           0
     32749 TIP3     5138     TIP3     H2       HT       0.417000       1.00800           0
     32750 TIP3     5139     TIP3     OH2      OT      -0.834000       15.9994           0
     32751 TIP3     5139     TIP3     H1       HT       0.417000       1.00800           0
     32752 TIP3     5139     TIP3     H2       HT       0.417000       1.00800           0
     32753 TIP3     5140     TIP3     OH2      OT      -0.834000       15.9994           0
     32754 TIP3     5140     TIP3     H1       HT       0.417000       1.00800           0
     32755 TIP3     5140     TIP3     H2       HT       0.417000       1.00800           0
     32756 TIP3     5141     TIP3     OH2      OT      -0.834000       15.9994           0
     32757 TIP3     5141     TIP3     H1       HT       0.417000       1.00800           0
     32758 TIP3     5141     TIP3     H2       HT       0.417000       1.00800           0
     32759 TIP3     5142     TIP3     OH2      OT      -0.834000       15.9994           0
     32760 TIP3     5142     TIP3     H1       HT       0.417000       1.00800           0
     32761 TIP3     5142     TIP3     H2       HT       0.417000       1.00800           0
     32762 TIP3     5143     TIP3     OH2      OT      -0.834000       15.9994           0
     32763 TIP3     5143     TIP3     H1       HT       0.417000       1.00800           0
     32764 TIP3     5143     TIP3     H2       HT       0.417000       1.00800           0
     32765 TIP3     5144     TIP3     OH2      OT      -0.834000       15.9994           0
     32766 TIP3     5144     TIP3     H1       HT       0.417000       1.00800           0
     32767 TIP3     5144     TIP3     H2       HT       0.417000       1.00800           0
     32768 TIP3     5145     TIP3     OH2      OT      -0.834000       15.9994           0
     32769 TIP3     5145     TIP3     H1       HT       0.417000       1.00800           0
     32770 TIP3     5145     TIP3     H2       HT       0.417000       1.00800           0
     32771 TIP3     5146     TIP3     OH2      OT      -0.834000       15.9994           0
     32772 TIP3     5146     TIP3     H1       HT       0.417000       1.00800           0
     32773 TIP3     5146     TIP3     H2       HT       0.417000       1.00800           0
     32774 TIP3     5147     TIP3     OH2      OT      -0.834000       15.9994           0
     32775 TIP3     5147     TIP3     H1       HT       0.417000       1.00800           0
     32776 TIP3     5147     TIP3     H2       HT       0.417000       1.00800           0
     32777 TIP3     5148     TIP3     OH2      OT      -0.834000       15.9994           0
     32778 TIP3     5148     TIP3     H1       HT       0.417000       1.00800           0
     32779 TIP3     5148     TIP3     H2       HT       0.417000       1.00800           0
     32780 TIP3     5149     TIP3     OH2      OT      -0.834000       15.9994           0
     32781 TIP3     5149     TIP3     H1       HT       0.417000       1.00800           0
     32782 TIP3     5149     TIP3     H2       HT       0.417000       1.00800           0
     32783 TIP3     5150     TIP3     OH2      OT      -0.834000       15.9994           0
     32784 TIP3     5150     TIP3     H1       HT       0.417000       1.00800           0
     32785 TIP3     5150     TIP3     H2       HT       0.417000       1.00800           0
     32786 TIP3     5151     TIP3     OH2      OT      -0.834000       15.9994           0
     32787 TIP3     5151     TIP3     H1       HT       0.417000       1.00800           0
     32788 TIP3     5151     TIP3     H2       HT       0.417000       1.00800           0
     32789 TIP3     5152     TIP3     OH2      OT      -0.834000       15.9994           0
     32790 TIP3     5152     TIP3     H1       HT       0.417000       1.00800           0
     32791 TIP3     5152     TIP3     H2       HT       0.417000       1.00800           0
     32792 TIP3     5153     TIP3     OH2      OT      -0.834000       15.9994           0
     32793 TIP3     5153     TIP3     H1       HT       0.417000       1.00800           0
     32794 TIP3     5153     TIP3     H2       HT       0.417000       1.00800           0
     32795 TIP3     5154     TIP3     OH2      OT      -0.834000       15.9994           0
     32796 TIP3     5154     TIP3     H1       HT       0.417000       1.00800           0
     32797 TIP3     5154     TIP3     H2       HT       0.417000       1.00800           0
     32798 TIP3     5155     TIP3     OH2      OT      -0.834000       15.9994           0
     32799 TIP3     5155     TIP3     H1       HT       0.417000       1.00800           0
     32800 TIP3     5155     TIP3     H2       HT       0.417000       1.00800           0
     32801 TIP3     5156     TIP3     OH2      OT      -0.834000       15.9994           0
     32802 TIP3     5156     TIP3     H1       HT       0.417000       1.00800           0
     32803 TIP3     5156     TIP3     H2       HT       0.417000       1.00800           0
     32804 TIP3     5157     TIP3     OH2      OT      -0.834000       15.9994           0
     32805 TIP3     5157     TIP3     H1       HT       0.417000       1.00800           0
     32806 TIP3     5157     TIP3     H2       HT       0.417000       1.00800           0
     32807 TIP3     5158     TIP3     OH2      OT      -0.834000       15.9994           0
     32808 TIP3     5158     TIP3     H1       HT       0.417000       1.00800           0
     32809 TIP3     5158     TIP3     H2       HT       0.417000       1.00800           0
     32810 TIP3     5159     TIP3     OH2      OT      -0.834000       15.9994           0
     32811 TIP3     5159     TIP3     H1       HT       0.417000       1.00800           0
     32812 TIP3     5159     TIP3     H2       HT       0.417000       1.00800           0
     32813 TIP3     5160     TIP3     OH2      OT      -0.834000       15.9994           0
     32814 TIP3     5160     TIP3     H1       HT       0.417000       1.00800           0
     32815 TIP3     5160     TIP3     H2       HT       0.417000       1.00800           0
     32816 TIP3     5161     TIP3     OH2      OT      -0.834000       15.9994           0
     32817 TIP3     5161     TIP3     H1       HT       0.417000       1.00800           0
     32818 TIP3     5161     TIP3     H2       HT       0.417000       1.00800           0
     32819 TIP3     5162     TIP3     OH2      OT      -0.834000       15.9994           0
     32820 TIP3     5162     TIP3     H1       HT       0.417000       1.00800           0
     32821 TIP3     5162     TIP3     H2       HT       0.417000       1.00800           0
     32822 TIP3     5163     TIP3     OH2      OT      -0.834000       15.9994           0
     32823 TIP3     5163     TIP3     H1       HT       0.417000       1.00800           0
     32824 TIP3     5163     TIP3     H2       HT       0.417000       1.00800           0
     32825 TIP3     5164     TIP3     OH2      OT      -0.834000       15.9994           0
     32826 TIP3     5164     TIP3     H1       HT       0.417000       1.00800           0
     32827 TIP3     5164     TIP3     H2       HT       0.417000       1.00800           0
     32828 TIP3     5165     TIP3     OH2      OT      -0.834000       15.9994           0
     32829 TIP3     5165     TIP3     H1       HT       0.417000       1.00800           0
     32830 TIP3     5165     TIP3     H2       HT       0.417000       1.00800           0
     32831 TIP3     5166     TIP3     OH2      OT      -0.834000       15.9994           0
     32832 TIP3     5166     TIP3     H1       HT       0.417000       1.00800           0
     32833 TIP3     5166     TIP3     H2       HT       0.417000       1.00800           0
     32834 TIP3     5167     TIP3     OH2      OT      -0.834000       15.9994           0
     32835 TIP3     5167     TIP3     H1       HT       0.417000       1.00800           0
     32836 TIP3     5167     TIP3     H2       HT       0.417000       1.00800           0
     32837 TIP3     5168     TIP3     OH2      OT      -0.834000       15.9994           0
     32838 TIP3     5168     TIP3     H1       HT       0.417000       1.00800           0
     32839 TIP3     5168     TIP3     H2       HT       0.417000       1.00800           0
     32840 TIP3     5169     TIP3     OH2      OT      -0.834000       15.9994           0
     32841 TIP3     5169     TIP3     H1       HT       0.417000       1.00800           0
     32842 TIP3     5169     TIP3     H2       HT       0.417000       1.00800           0
     32843 TIP3     5170     TIP3     OH2      OT      -0.834000       15.9994           0
     32844 TIP3     5170     TIP3     H1       HT       0.417000       1.00800           0
     32845 TIP3     5170     TIP3     H2       HT       0.417000       1.00800           0
     32846 TIP3     5171     TIP3     OH2      OT      -0.834000       15.9994           0
     32847 TIP3     5171     TIP3     H1       HT       0.417000       1.00800           0
     32848 TIP3     5171     TIP3     H2       HT       0.417000       1.00800           0
     32849 TIP3     5172     TIP3     OH2      OT      -0.834000       15.9994           0
     32850 TIP3     5172     TIP3     H1       HT       0.417000       1.00800           0
     32851 TIP3     5172     TIP3     H2       HT       0.417000       1.00800           0
     32852 TIP3     5173     TIP3     OH2      OT      -0.834000       15.9994           0
     32853 TIP3     5173     TIP3     H1       HT       0.417000       1.00800           0
     32854 TIP3     5173     TIP3     H2       HT       0.417000       1.00800           0
     32855 TIP3     5174     TIP3     OH2      OT      -0.834000       15.9994           0
     32856 TIP3     5174     TIP3     H1       HT       0.417000       1.00800           0
     32857 TIP3     5174     TIP3     H2       HT       0.417000       1.00800           0
     32858 TIP3     5175     TIP3     OH2      OT      -0.834000       15.9994           0
     32859 TIP3     5175     TIP3     H1       HT       0.417000       1.00800           0
     32860 TIP3     5175     TIP3     H2       HT       0.417000       1.00800           0
     32861 TIP3     5176     TIP3     OH2      OT      -0.834000       15.9994           0
     32862 TIP3     5176     TIP3     H1       HT       0.417000       1.00800           0
     32863 TIP3     5176     TIP3     H2       HT       0.417000       1.00800           0
     32864 TIP3     5177     TIP3     OH2      OT      -0.834000       15.9994           0
     32865 TIP3     5177     TIP3     H1       HT       0.417000       1.00800           0
     32866 TIP3     5177     TIP3     H2       HT       0.417000       1.00800           0
     32867 TIP3     5178     TIP3     OH2      OT      -0.834000       15.9994           0
     32868 TIP3     5178     TIP3     H1       HT       0.417000       1.00800           0
     32869 TIP3     5178     TIP3     H2       HT       0.417000       1.00800           0
     32870 TIP3     5179     TIP3     OH2      OT      -0.834000       15.9994           0
     32871 TIP3     5179     TIP3     H1       HT       0.417000       1.00800           0
     32872 TIP3     5179     TIP3     H2       HT       0.417000       1.00800           0
     32873 TIP3     5180     TIP3     OH2      OT      -0.834000       15.9994           0
     32874 TIP3     5180     TIP3     H1       HT       0.417000       1.00800           0
     32875 TIP3     5180     TIP3     H2       HT       0.417000       1.00800           0
     32876 TIP3     5181     TIP3     OH2      OT      -0.834000       15.9994           0
     32877 TIP3     5181     TIP3     H1       HT       0.417000       1.00800           0
     32878 TIP3     5181     TIP3     H2       HT       0.417000       1.00800           0
     32879 TIP3     5182     TIP3     OH2      OT      -0.834000       15.9994           0
     32880 TIP3     5182     TIP3     H1       HT       0.417000       1.00800           0
     32881 TIP3     5182     TIP3     H2       HT       0.417000       1.00800           0
     32882 TIP3     5183     TIP3     OH2      OT      -0.834000       15.9994           0
     32883 TIP3     5183     TIP3     H1       HT       0.417000       1.00800           0
     32884 TIP3     5183     TIP3     H2       HT       0.417000       1.00800           0
     32885 TIP3     5184     TIP3     OH2      OT      -0.834000       15.9994           0
     32886 TIP3     5184     TIP3     H1       HT       0.417000       1.00800           0
     32887 TIP3     5184     TIP3     H2       HT       0.417000       1.00800           0
     32888 TIP3     5185     TIP3     OH2      OT      -0.834000       15.9994           0
     32889 TIP3     5185     TIP3     H1       HT       0.417000       1.00800           0
     32890 TIP3     5185     TIP3     H2       HT       0.417000       1.00800           0
     32891 TIP3     5186     TIP3     OH2      OT      -0.834000       15.9994           0
     32892 TIP3     5186     TIP3     H1       HT       0.417000       1.00800           0
     32893 TIP3     5186     TIP3     H2       HT       0.417000       1.00800           0
     32894 TIP3     5187     TIP3     OH2      OT      -0.834000       15.9994           0
     32895 TIP3     5187     TIP3     H1       HT       0.417000       1.00800           0
     32896 TIP3     5187     TIP3     H2       HT       0.417000       1.00800           0
     32897 TIP3     5188     TIP3     OH2      OT      -0.834000       15.9994           0
     32898 TIP3     5188     TIP3     H1       HT       0.417000       1.00800           0
     32899 TIP3     5188     TIP3     H2       HT       0.417000       1.00800           0
     32900 TIP3     5189     TIP3     OH2      OT      -0.834000       15.9994           0
     32901 TIP3     5189     TIP3     H1       HT       0.417000       1.00800           0
     32902 TIP3     5189     TIP3     H2       HT       0.417000       1.00800           0
     32903 TIP3     5190     TIP3     OH2      OT      -0.834000       15.9994           0
     32904 TIP3     5190     TIP3     H1       HT       0.417000       1.00800           0
     32905 TIP3     5190     TIP3     H2       HT       0.417000       1.00800           0
     32906 TIP3     5191     TIP3     OH2      OT      -0.834000       15.9994           0
     32907 TIP3     5191     TIP3     H1       HT       0.417000       1.00800           0
     32908 TIP3     5191     TIP3     H2       HT       0.417000       1.00800           0
     32909 TIP3     5192     TIP3     OH2      OT      -0.834000       15.9994           0
     32910 TIP3     5192     TIP3     H1       HT       0.417000       1.00800           0
     32911 TIP3     5192     TIP3     H2       HT       0.417000       1.00800           0
     32912 TIP3     5193     TIP3     OH2      OT      -0.834000       15.9994           0
     32913 TIP3     5193     TIP3     H1       HT       0.417000       1.00800           0
     32914 TIP3     5193     TIP3     H2       HT       0.417000       1.00800           0
     32915 TIP3     5194     TIP3     OH2      OT      -0.834000       15.9994           0
     32916 TIP3     5194     TIP3     H1       HT       0.417000       1.00800           0
     32917 TIP3     5194     TIP3     H2       HT       0.417000       1.00800           0
     32918 TIP3     5195     TIP3     OH2      OT      -0.834000       15.9994           0
     32919 TIP3     5195     TIP3     H1       HT       0.417000       1.00800           0
     32920 TIP3     5195     TIP3     H2       HT       0.417000       1.00800           0
     32921 TIP3     5196     TIP3     OH2      OT      -0.834000       15.9994           0
     32922 TIP3     5196     TIP3     H1       HT       0.417000       1.00800           0
     32923 TIP3     5196     TIP3     H2       HT       0.417000       1.00800           0
     32924 TIP3     5197     TIP3     OH2      OT      -0.834000       15.9994           0
     32925 TIP3     5197     TIP3     H1       HT       0.417000       1.00800           0
     32926 TIP3     5197     TIP3     H2       HT       0.417000       1.00800           0
     32927 TIP3     5198     TIP3     OH2      OT      -0.834000       15.9994           0
     32928 TIP3     5198     TIP3     H1       HT       0.417000       1.00800           0
     32929 TIP3     5198     TIP3     H2       HT       0.417000       1.00800           0
     32930 TIP3     5199     TIP3     OH2      OT      -0.834000       15.9994           0
     32931 TIP3     5199     TIP3     H1       HT       0.417000       1.00800           0
     32932 TIP3     5199     TIP3     H2       HT       0.417000       1.00800           0
     32933 TIP3     5200     TIP3     OH2      OT      -0.834000       15.9994           0
     32934 TIP3     5200     TIP3     H1       HT       0.417000       1.00800           0
     32935 TIP3     5200     TIP3     H2       HT       0.417000       1.00800           0
     32936 TIP3     5201     TIP3     OH2      OT      -0.834000       15.9994           0
     32937 TIP3     5201     TIP3     H1       HT       0.417000       1.00800           0
     32938 TIP3     5201     TIP3     H2       HT       0.417000       1.00800           0
     32939 TIP3     5202     TIP3     OH2      OT      -0.834000       15.9994           0
     32940 TIP3     5202     TIP3     H1       HT       0.417000       1.00800           0
     32941 TIP3     5202     TIP3     H2       HT       0.417000       1.00800           0
     32942 TIP3     5203     TIP3     OH2      OT      -0.834000       15.9994           0
     32943 TIP3     5203     TIP3     H1       HT       0.417000       1.00800           0
     32944 TIP3     5203     TIP3     H2       HT       0.417000       1.00800           0
     32945 TIP3     5204     TIP3     OH2      OT      -0.834000       15.9994           0
     32946 TIP3     5204     TIP3     H1       HT       0.417000       1.00800           0
     32947 TIP3     5204     TIP3     H2       HT       0.417000       1.00800           0
     32948 TIP3     5205     TIP3     OH2      OT      -0.834000       15.9994           0
     32949 TIP3     5205     TIP3     H1       HT       0.417000       1.00800           0
     32950 TIP3     5205     TIP3     H2       HT       0.417000       1.00800           0
     32951 TIP3     5206     TIP3     OH2      OT      -0.834000       15.9994           0
     32952 TIP3     5206     TIP3     H1       HT       0.417000       1.00800           0
     32953 TIP3     5206     TIP3     H2       HT       0.417000       1.00800           0
     32954 TIP3     5207     TIP3     OH2      OT      -0.834000       15.9994           0
     32955 TIP3     5207     TIP3     H1       HT       0.417000       1.00800           0
     32956 TIP3     5207     TIP3     H2       HT       0.417000       1.00800           0
     32957 TIP3     5208     TIP3     OH2      OT      -0.834000       15.9994           0
     32958 TIP3     5208     TIP3     H1       HT       0.417000       1.00800           0
     32959 TIP3     5208     TIP3     H2       HT       0.417000       1.00800           0
     32960 TIP3     5209     TIP3     OH2      OT      -0.834000       15.9994           0
     32961 TIP3     5209     TIP3     H1       HT       0.417000       1.00800           0
     32962 TIP3     5209     TIP3     H2       HT       0.417000       1.00800           0
     32963 TIP3     5210     TIP3     OH2      OT      -0.834000       15.9994           0
     32964 TIP3     5210     TIP3     H1       HT       0.417000       1.00800           0
     32965 TIP3     5210     TIP3     H2       HT       0.417000       1.00800           0
     32966 TIP3     5211     TIP3     OH2      OT      -0.834000       15.9994           0
     32967 TIP3     5211     TIP3     H1       HT       0.417000       1.00800           0
     32968 TIP3     5211     TIP3     H2       HT       0.417000       1.00800           0
     32969 TIP3     5212     TIP3     OH2      OT      -0.834000       15.9994           0
     32970 TIP3     5212     TIP3     H1       HT       0.417000       1.00800           0
     32971 TIP3     5212     TIP3     H2       HT       0.417000       1.00800           0
     32972 TIP3     5213     TIP3     OH2      OT      -0.834000       15.9994           0
     32973 TIP3     5213     TIP3     H1       HT       0.417000       1.00800           0
     32974 TIP3     5213     TIP3     H2       HT       0.417000       1.00800           0
     32975 TIP3     5214     TIP3     OH2      OT      -0.834000       15.9994           0
     32976 TIP3     5214     TIP3     H1       HT       0.417000       1.00800           0
     32977 TIP3     5214     TIP3     H2       HT       0.417000       1.00800           0
     32978 TIP3     5215     TIP3     OH2      OT      -0.834000       15.9994           0
     32979 TIP3     5215     TIP3     H1       HT       0.417000       1.00800           0
     32980 TIP3     5215     TIP3     H2       HT       0.417000       1.00800           0
     32981 TIP3     5216     TIP3     OH2      OT      -0.834000       15.9994           0
     32982 TIP3     5216     TIP3     H1       HT       0.417000       1.00800           0
     32983 TIP3     5216     TIP3     H2       HT       0.417000       1.00800           0
     32984 TIP3     5217     TIP3     OH2      OT      -0.834000       15.9994           0
     32985 TIP3     5217     TIP3     H1       HT       0.417000       1.00800           0
     32986 TIP3     5217     TIP3     H2       HT       0.417000       1.00800           0
     32987 TIP3     5218     TIP3     OH2      OT      -0.834000       15.9994           0
     32988 TIP3     5218     TIP3     H1       HT       0.417000       1.00800           0
     32989 TIP3     5218     TIP3     H2       HT       0.417000       1.00800           0
     32990 TIP3     5219     TIP3     OH2      OT      -0.834000       15.9994           0
     32991 TIP3     5219     TIP3     H1       HT       0.417000       1.00800           0
     32992 TIP3     5219     TIP3     H2       HT       0.417000       1.00800           0
     32993 TIP3     5220     TIP3     OH2      OT      -0.834000       15.9994           0
     32994 TIP3     5220     TIP3     H1       HT       0.417000       1.00800           0
     32995 TIP3     5220     TIP3     H2       HT       0.417000       1.00800           0
     32996 TIP3     5221     TIP3     OH2      OT      -0.834000       15.9994           0
     32997 TIP3     5221     TIP3     H1       HT       0.417000       1.00800           0
     32998 TIP3     5221     TIP3     H2       HT       0.417000       1.00800           0
     32999 TIP3     5222     TIP3     OH2      OT      -0.834000       15.9994           0
     33000 TIP3     5222     TIP3     H1       HT       0.417000       1.00800           0
     33001 TIP3     5222     TIP3     H2       HT       0.417000       1.00800           0
     33002 TIP3     5223     TIP3     OH2      OT      -0.834000       15.9994           0
     33003 TIP3     5223     TIP3     H1       HT       0.417000       1.00800           0
     33004 TIP3     5223     TIP3     H2       HT       0.417000       1.00800           0
     33005 TIP3     5224     TIP3     OH2      OT      -0.834000       15.9994           0
     33006 TIP3     5224     TIP3     H1       HT       0.417000       1.00800           0
     33007 TIP3     5224     TIP3     H2       HT       0.417000       1.00800           0
     33008 TIP3     5225     TIP3     OH2      OT      -0.834000       15.9994           0
     33009 TIP3     5225     TIP3     H1       HT       0.417000       1.00800           0
     33010 TIP3     5225     TIP3     H2       HT       0.417000       1.00800           0
     33011 TIP3     5226     TIP3     OH2      OT      -0.834000       15.9994           0
     33012 TIP3     5226     TIP3     H1       HT       0.417000       1.00800           0
     33013 TIP3     5226     TIP3     H2       HT       0.417000       1.00800           0
     33014 TIP3     5227     TIP3     OH2      OT      -0.834000       15.9994           0
     33015 TIP3     5227     TIP3     H1       HT       0.417000       1.00800           0
     33016 TIP3     5227     TIP3     H2       HT       0.417000       1.00800           0
     33017 TIP3     5228     TIP3     OH2      OT      -0.834000       15.9994           0
     33018 TIP3     5228     TIP3     H1       HT       0.417000       1.00800           0
     33019 TIP3     5228     TIP3     H2       HT       0.417000       1.00800           0
     33020 TIP3     5229     TIP3     OH2      OT      -0.834000       15.9994           0
     33021 TIP3     5229     TIP3     H1       HT       0.417000       1.00800           0
     33022 TIP3     5229     TIP3     H2       HT       0.417000       1.00800           0
     33023 TIP3     5230     TIP3     OH2      OT      -0.834000       15.9994           0
     33024 TIP3     5230     TIP3     H1       HT       0.417000       1.00800           0
     33025 TIP3     5230     TIP3     H2       HT       0.417000       1.00800           0
     33026 TIP3     5231     TIP3     OH2      OT      -0.834000       15.9994           0
     33027 TIP3     5231     TIP3     H1       HT       0.417000       1.00800           0
     33028 TIP3     5231     TIP3     H2       HT       0.417000       1.00800           0
     33029 TIP3     5232     TIP3     OH2      OT      -0.834000       15.9994           0
     33030 TIP3     5232     TIP3     H1       HT       0.417000       1.00800           0
     33031 TIP3     5232     TIP3     H2       HT       0.417000       1.00800           0
     33032 TIP3     5233     TIP3     OH2      OT      -0.834000       15.9994           0
     33033 TIP3     5233     TIP3     H1       HT       0.417000       1.00800           0
     33034 TIP3     5233     TIP3     H2       HT       0.417000       1.00800           0
     33035 TIP3     5234     TIP3     OH2      OT      -0.834000       15.9994           0
     33036 TIP3     5234     TIP3     H1       HT       0.417000       1.00800           0
     33037 TIP3     5234     TIP3     H2       HT       0.417000       1.00800           0
     33038 TIP3     5235     TIP3     OH2      OT      -0.834000       15.9994           0
     33039 TIP3     5235     TIP3     H1       HT       0.417000       1.00800           0
     33040 TIP3     5235     TIP3     H2       HT       0.417000       1.00800           0
     33041 TIP3     5236     TIP3     OH2      OT      -0.834000       15.9994           0
     33042 TIP3     5236     TIP3     H1       HT       0.417000       1.00800           0
     33043 TIP3     5236     TIP3     H2       HT       0.417000       1.00800           0
     33044 TIP3     5237     TIP3     OH2      OT      -0.834000       15.9994           0
     33045 TIP3     5237     TIP3     H1       HT       0.417000       1.00800           0
     33046 TIP3     5237     TIP3     H2       HT       0.417000       1.00800           0
     33047 TIP3     5238     TIP3     OH2      OT      -0.834000       15.9994           0
     33048 TIP3     5238     TIP3     H1       HT       0.417000       1.00800           0
     33049 TIP3     5238     TIP3     H2       HT       0.417000       1.00800           0
     33050 TIP3     5239     TIP3     OH2      OT      -0.834000       15.9994           0
     33051 TIP3     5239     TIP3     H1       HT       0.417000       1.00800           0
     33052 TIP3     5239     TIP3     H2       HT       0.417000       1.00800           0
     33053 TIP3     5240     TIP3     OH2      OT      -0.834000       15.9994           0
     33054 TIP3     5240     TIP3     H1       HT       0.417000       1.00800           0
     33055 TIP3     5240     TIP3     H2       HT       0.417000       1.00800           0
     33056 TIP3     5241     TIP3     OH2      OT      -0.834000       15.9994           0
     33057 TIP3     5241     TIP3     H1       HT       0.417000       1.00800           0
     33058 TIP3     5241     TIP3     H2       HT       0.417000       1.00800           0
     33059 TIP3     5242     TIP3     OH2      OT      -0.834000       15.9994           0
     33060 TIP3     5242     TIP3     H1       HT       0.417000       1.00800           0
     33061 TIP3     5242     TIP3     H2       HT       0.417000       1.00800           0
     33062 TIP3     5243     TIP3     OH2      OT      -0.834000       15.9994           0
     33063 TIP3     5243     TIP3     H1       HT       0.417000       1.00800           0
     33064 TIP3     5243     TIP3     H2       HT       0.417000       1.00800           0
     33065 TIP3     5244     TIP3     OH2      OT      -0.834000       15.9994           0
     33066 TIP3     5244     TIP3     H1       HT       0.417000       1.00800           0
     33067 TIP3     5244     TIP3     H2       HT       0.417000       1.00800           0
     33068 TIP3     5245     TIP3     OH2      OT      -0.834000       15.9994           0
     33069 TIP3     5245     TIP3     H1       HT       0.417000       1.00800           0
     33070 TIP3     5245     TIP3     H2       HT       0.417000       1.00800           0
     33071 TIP3     5246     TIP3     OH2      OT      -0.834000       15.9994           0
     33072 TIP3     5246     TIP3     H1       HT       0.417000       1.00800           0
     33073 TIP3     5246     TIP3     H2       HT       0.417000       1.00800           0
     33074 TIP3     5247     TIP3     OH2      OT      -0.834000       15.9994           0
     33075 TIP3     5247     TIP3     H1       HT       0.417000       1.00800           0
     33076 TIP3     5247     TIP3     H2       HT       0.417000       1.00800           0
     33077 TIP3     5248     TIP3     OH2      OT      -0.834000       15.9994           0
     33078 TIP3     5248     TIP3     H1       HT       0.417000       1.00800           0
     33079 TIP3     5248     TIP3     H2       HT       0.417000       1.00800           0
     33080 TIP3     5249     TIP3     OH2      OT      -0.834000       15.9994           0
     33081 TIP3     5249     TIP3     H1       HT       0.417000       1.00800           0
     33082 TIP3     5249     TIP3     H2       HT       0.417000       1.00800           0
     33083 TIP3     5250     TIP3     OH2      OT      -0.834000       15.9994           0
     33084 TIP3     5250     TIP3     H1       HT       0.417000       1.00800           0
     33085 TIP3     5250     TIP3     H2       HT       0.417000       1.00800           0
     33086 TIP3     5251     TIP3     OH2      OT      -0.834000       15.9994           0
     33087 TIP3     5251     TIP3     H1       HT       0.417000       1.00800           0
     33088 TIP3     5251     TIP3     H2       HT       0.417000       1.00800           0
     33089 TIP3     5252     TIP3     OH2      OT      -0.834000       15.9994           0
     33090 TIP3     5252     TIP3     H1       HT       0.417000       1.00800           0
     33091 TIP3     5252     TIP3     H2       HT       0.417000       1.00800           0
     33092 TIP3     5253     TIP3     OH2      OT      -0.834000       15.9994           0
     33093 TIP3     5253     TIP3     H1       HT       0.417000       1.00800           0
     33094 TIP3     5253     TIP3     H2       HT       0.417000       1.00800           0
     33095 TIP3     5254     TIP3     OH2      OT      -0.834000       15.9994           0
     33096 TIP3     5254     TIP3     H1       HT       0.417000       1.00800           0
     33097 TIP3     5254     TIP3     H2       HT       0.417000       1.00800           0
     33098 TIP3     5255     TIP3     OH2      OT      -0.834000       15.9994           0
     33099 TIP3     5255     TIP3     H1       HT       0.417000       1.00800           0
     33100 TIP3     5255     TIP3     H2       HT       0.417000       1.00800           0
     33101 TIP3     5256     TIP3     OH2      OT      -0.834000       15.9994           0
     33102 TIP3     5256     TIP3     H1       HT       0.417000       1.00800           0
     33103 TIP3     5256     TIP3     H2       HT       0.417000       1.00800           0
     33104 TIP3     5257     TIP3     OH2      OT      -0.834000       15.9994           0
     33105 TIP3     5257     TIP3     H1       HT       0.417000       1.00800           0
     33106 TIP3     5257     TIP3     H2       HT       0.417000       1.00800           0
     33107 TIP3     5258     TIP3     OH2      OT      -0.834000       15.9994           0
     33108 TIP3     5258     TIP3     H1       HT       0.417000       1.00800           0
     33109 TIP3     5258     TIP3     H2       HT       0.417000       1.00800           0
     33110 TIP3     5259     TIP3     OH2      OT      -0.834000       15.9994           0
     33111 TIP3     5259     TIP3     H1       HT       0.417000       1.00800           0
     33112 TIP3     5259     TIP3     H2       HT       0.417000       1.00800           0
     33113 TIP3     5260     TIP3     OH2      OT      -0.834000       15.9994           0
     33114 TIP3     5260     TIP3     H1       HT       0.417000       1.00800           0
     33115 TIP3     5260     TIP3     H2       HT       0.417000       1.00800           0
     33116 TIP3     5261     TIP3     OH2      OT      -0.834000       15.9994           0
     33117 TIP3     5261     TIP3     H1       HT       0.417000       1.00800           0
     33118 TIP3     5261     TIP3     H2       HT       0.417000       1.00800           0
     33119 TIP3     5262     TIP3     OH2      OT      -0.834000       15.9994           0
     33120 TIP3     5262     TIP3     H1       HT       0.417000       1.00800           0
     33121 TIP3     5262     TIP3     H2       HT       0.417000       1.00800           0
     33122 TIP3     5263     TIP3     OH2      OT      -0.834000       15.9994           0
     33123 TIP3     5263     TIP3     H1       HT       0.417000       1.00800           0
     33124 TIP3     5263     TIP3     H2       HT       0.417000       1.00800           0
     33125 TIP3     5264     TIP3     OH2      OT      -0.834000       15.9994           0
     33126 TIP3     5264     TIP3     H1       HT       0.417000       1.00800           0
     33127 TIP3     5264     TIP3     H2       HT       0.417000       1.00800           0
     33128 TIP3     5265     TIP3     OH2      OT      -0.834000       15.9994           0
     33129 TIP3     5265     TIP3     H1       HT       0.417000       1.00800           0
     33130 TIP3     5265     TIP3     H2       HT       0.417000       1.00800           0
     33131 TIP3     5266     TIP3     OH2      OT      -0.834000       15.9994           0
     33132 TIP3     5266     TIP3     H1       HT       0.417000       1.00800           0
     33133 TIP3     5266     TIP3     H2       HT       0.417000       1.00800           0
     33134 TIP3     5267     TIP3     OH2      OT      -0.834000       15.9994           0
     33135 TIP3     5267     TIP3     H1       HT       0.417000       1.00800           0
     33136 TIP3     5267     TIP3     H2       HT       0.417000       1.00800           0
     33137 TIP3     5268     TIP3     OH2      OT      -0.834000       15.9994           0
     33138 TIP3     5268     TIP3     H1       HT       0.417000       1.00800           0
     33139 TIP3     5268     TIP3     H2       HT       0.417000       1.00800           0
     33140 TIP3     5269     TIP3     OH2      OT      -0.834000       15.9994           0
     33141 TIP3     5269     TIP3     H1       HT       0.417000       1.00800           0
     33142 TIP3     5269     TIP3     H2       HT       0.417000       1.00800           0
     33143 TIP3     5270     TIP3     OH2      OT      -0.834000       15.9994           0
     33144 TIP3     5270     TIP3     H1       HT       0.417000       1.00800           0
     33145 TIP3     5270     TIP3     H2       HT       0.417000       1.00800           0
     33146 TIP3     5271     TIP3     OH2      OT      -0.834000       15.9994           0
     33147 TIP3     5271     TIP3     H1       HT       0.417000       1.00800           0
     33148 TIP3     5271     TIP3     H2       HT       0.417000       1.00800           0
     33149 TIP3     5272     TIP3     OH2      OT      -0.834000       15.9994           0
     33150 TIP3     5272     TIP3     H1       HT       0.417000       1.00800           0
     33151 TIP3     5272     TIP3     H2       HT       0.417000       1.00800           0
     33152 TIP3     5273     TIP3     OH2      OT      -0.834000       15.9994           0
     33153 TIP3     5273     TIP3     H1       HT       0.417000       1.00800           0
     33154 TIP3     5273     TIP3     H2       HT       0.417000       1.00800           0
     33155 TIP3     5274     TIP3     OH2      OT      -0.834000       15.9994           0
     33156 TIP3     5274     TIP3     H1       HT       0.417000       1.00800           0
     33157 TIP3     5274     TIP3     H2       HT       0.417000       1.00800           0
     33158 TIP3     5275     TIP3     OH2      OT      -0.834000       15.9994           0
     33159 TIP3     5275     TIP3     H1       HT       0.417000       1.00800           0
     33160 TIP3     5275     TIP3     H2       HT       0.417000       1.00800           0
     33161 TIP3     5276     TIP3     OH2      OT      -0.834000       15.9994           0
     33162 TIP3     5276     TIP3     H1       HT       0.417000       1.00800           0
     33163 TIP3     5276     TIP3     H2       HT       0.417000       1.00800           0
     33164 TIP3     5277     TIP3     OH2      OT      -0.834000       15.9994           0
     33165 TIP3     5277     TIP3     H1       HT       0.417000       1.00800           0
     33166 TIP3     5277     TIP3     H2       HT       0.417000       1.00800           0
     33167 TIP3     5278     TIP3     OH2      OT      -0.834000       15.9994           0
     33168 TIP3     5278     TIP3     H1       HT       0.417000       1.00800           0
     33169 TIP3     5278     TIP3     H2       HT       0.417000       1.00800           0
     33170 TIP3     5279     TIP3     OH2      OT      -0.834000       15.9994           0
     33171 TIP3     5279     TIP3     H1       HT       0.417000       1.00800           0
     33172 TIP3     5279     TIP3     H2       HT       0.417000       1.00800           0
     33173 TIP3     5280     TIP3     OH2      OT      -0.834000       15.9994           0
     33174 TIP3     5280     TIP3     H1       HT       0.417000       1.00800           0
     33175 TIP3     5280     TIP3     H2       HT       0.417000       1.00800           0
     33176 TIP3     5281     TIP3     OH2      OT      -0.834000       15.9994           0
     33177 TIP3     5281     TIP3     H1       HT       0.417000       1.00800           0
     33178 TIP3     5281     TIP3     H2       HT       0.417000       1.00800           0
     33179 TIP3     5282     TIP3     OH2      OT      -0.834000       15.9994           0
     33180 TIP3     5282     TIP3     H1       HT       0.417000       1.00800           0
     33181 TIP3     5282     TIP3     H2       HT       0.417000       1.00800           0
     33182 TIP3     5283     TIP3     OH2      OT      -0.834000       15.9994           0
     33183 TIP3     5283     TIP3     H1       HT       0.417000       1.00800           0
     33184 TIP3     5283     TIP3     H2       HT       0.417000       1.00800           0
     33185 TIP3     5284     TIP3     OH2      OT      -0.834000       15.9994           0
     33186 TIP3     5284     TIP3     H1       HT       0.417000       1.00800           0
     33187 TIP3     5284     TIP3     H2       HT       0.417000       1.00800           0
     33188 TIP3     5285     TIP3     OH2      OT      -0.834000       15.9994           0
     33189 TIP3     5285     TIP3     H1       HT       0.417000       1.00800           0
     33190 TIP3     5285     TIP3     H2       HT       0.417000       1.00800           0
     33191 TIP3     5286     TIP3     OH2      OT      -0.834000       15.9994           0
     33192 TIP3     5286     TIP3     H1       HT       0.417000       1.00800           0
     33193 TIP3     5286     TIP3     H2       HT       0.417000       1.00800           0
     33194 TIP3     5287     TIP3     OH2      OT      -0.834000       15.9994           0
     33195 TIP3     5287     TIP3     H1       HT       0.417000       1.00800           0
     33196 TIP3     5287     TIP3     H2       HT       0.417000       1.00800           0
     33197 TIP3     5288     TIP3     OH2      OT      -0.834000       15.9994           0
     33198 TIP3     5288     TIP3     H1       HT       0.417000       1.00800           0
     33199 TIP3     5288     TIP3     H2       HT       0.417000       1.00800           0
     33200 TIP3     5289     TIP3     OH2      OT      -0.834000       15.9994           0
     33201 TIP3     5289     TIP3     H1       HT       0.417000       1.00800           0
     33202 TIP3     5289     TIP3     H2       HT       0.417000       1.00800           0
     33203 TIP3     5290     TIP3     OH2      OT      -0.834000       15.9994           0
     33204 TIP3     5290     TIP3     H1       HT       0.417000       1.00800           0
     33205 TIP3     5290     TIP3     H2       HT       0.417000       1.00800           0
     33206 TIP3     5291     TIP3     OH2      OT      -0.834000       15.9994           0
     33207 TIP3     5291     TIP3     H1       HT       0.417000       1.00800           0
     33208 TIP3     5291     TIP3     H2       HT       0.417000       1.00800           0
     33209 TIP3     5292     TIP3     OH2      OT      -0.834000       15.9994           0
     33210 TIP3     5292     TIP3     H1       HT       0.417000       1.00800           0
     33211 TIP3     5292     TIP3     H2       HT       0.417000       1.00800           0
     33212 TIP3     5293     TIP3     OH2      OT      -0.834000       15.9994           0
     33213 TIP3     5293     TIP3     H1       HT       0.417000       1.00800           0
     33214 TIP3     5293     TIP3     H2       HT       0.417000       1.00800           0
     33215 TIP3     5294     TIP3     OH2      OT      -0.834000       15.9994           0
     33216 TIP3     5294     TIP3     H1       HT       0.417000       1.00800           0
     33217 TIP3     5294     TIP3     H2       HT       0.417000       1.00800           0
     33218 TIP3     5295     TIP3     OH2      OT      -0.834000       15.9994           0
     33219 TIP3     5295     TIP3     H1       HT       0.417000       1.00800           0
     33220 TIP3     5295     TIP3     H2       HT       0.417000       1.00800           0
     33221 TIP3     5296     TIP3     OH2      OT      -0.834000       15.9994           0
     33222 TIP3     5296     TIP3     H1       HT       0.417000       1.00800           0
     33223 TIP3     5296     TIP3     H2       HT       0.417000       1.00800           0
     33224 TIP3     5297     TIP3     OH2      OT      -0.834000       15.9994           0
     33225 TIP3     5297     TIP3     H1       HT       0.417000       1.00800           0
     33226 TIP3     5297     TIP3     H2       HT       0.417000       1.00800           0
     33227 TIP3     5298     TIP3     OH2      OT      -0.834000       15.9994           0
     33228 TIP3     5298     TIP3     H1       HT       0.417000       1.00800           0
     33229 TIP3     5298     TIP3     H2       HT       0.417000       1.00800           0
     33230 TIP3     5299     TIP3     OH2      OT      -0.834000       15.9994           0
     33231 TIP3     5299     TIP3     H1       HT       0.417000       1.00800           0
     33232 TIP3     5299     TIP3     H2       HT       0.417000       1.00800           0
     33233 TIP3     5300     TIP3     OH2      OT      -0.834000       15.9994           0
     33234 TIP3     5300     TIP3     H1       HT       0.417000       1.00800           0
     33235 TIP3     5300     TIP3     H2       HT       0.417000       1.00800           0
     33236 TIP3     5301     TIP3     OH2      OT      -0.834000       15.9994           0
     33237 TIP3     5301     TIP3     H1       HT       0.417000       1.00800           0
     33238 TIP3     5301     TIP3     H2       HT       0.417000       1.00800           0
     33239 TIP3     5302     TIP3     OH2      OT      -0.834000       15.9994           0
     33240 TIP3     5302     TIP3     H1       HT       0.417000       1.00800           0
     33241 TIP3     5302     TIP3     H2       HT       0.417000       1.00800           0
     33242 TIP3     5303     TIP3     OH2      OT      -0.834000       15.9994           0
     33243 TIP3     5303     TIP3     H1       HT       0.417000       1.00800           0
     33244 TIP3     5303     TIP3     H2       HT       0.417000       1.00800           0
     33245 TIP3     5304     TIP3     OH2      OT      -0.834000       15.9994           0
     33246 TIP3     5304     TIP3     H1       HT       0.417000       1.00800           0
     33247 TIP3     5304     TIP3     H2       HT       0.417000       1.00800           0
     33248 TIP3     5305     TIP3     OH2      OT      -0.834000       15.9994           0
     33249 TIP3     5305     TIP3     H1       HT       0.417000       1.00800           0
     33250 TIP3     5305     TIP3     H2       HT       0.417000       1.00800           0
     33251 TIP3     5306     TIP3     OH2      OT      -0.834000       15.9994           0
     33252 TIP3     5306     TIP3     H1       HT       0.417000       1.00800           0
     33253 TIP3     5306     TIP3     H2       HT       0.417000       1.00800           0
     33254 TIP3     5307     TIP3     OH2      OT      -0.834000       15.9994           0
     33255 TIP3     5307     TIP3     H1       HT       0.417000       1.00800           0
     33256 TIP3     5307     TIP3     H2       HT       0.417000       1.00800           0
     33257 TIP3     5308     TIP3     OH2      OT      -0.834000       15.9994           0
     33258 TIP3     5308     TIP3     H1       HT       0.417000       1.00800           0
     33259 TIP3     5308     TIP3     H2       HT       0.417000       1.00800           0
     33260 TIP3     5309     TIP3     OH2      OT      -0.834000       15.9994           0
     33261 TIP3     5309     TIP3     H1       HT       0.417000       1.00800           0
     33262 TIP3     5309     TIP3     H2       HT       0.417000       1.00800           0
     33263 TIP3     5310     TIP3     OH2      OT      -0.834000       15.9994           0
     33264 TIP3     5310     TIP3     H1       HT       0.417000       1.00800           0
     33265 TIP3     5310     TIP3     H2       HT       0.417000       1.00800           0
     33266 TIP3     5311     TIP3     OH2      OT      -0.834000       15.9994           0
     33267 TIP3     5311     TIP3     H1       HT       0.417000       1.00800           0
     33268 TIP3     5311     TIP3     H2       HT       0.417000       1.00800           0
     33269 TIP3     5312     TIP3     OH2      OT      -0.834000       15.9994           0
     33270 TIP3     5312     TIP3     H1       HT       0.417000       1.00800           0
     33271 TIP3     5312     TIP3     H2       HT       0.417000       1.00800           0
     33272 TIP3     5313     TIP3     OH2      OT      -0.834000       15.9994           0
     33273 TIP3     5313     TIP3     H1       HT       0.417000       1.00800           0
     33274 TIP3     5313     TIP3     H2       HT       0.417000       1.00800           0
     33275 TIP3     5314     TIP3     OH2      OT      -0.834000       15.9994           0
     33276 TIP3     5314     TIP3     H1       HT       0.417000       1.00800           0
     33277 TIP3     5314     TIP3     H2       HT       0.417000       1.00800           0
     33278 TIP3     5315     TIP3     OH2      OT      -0.834000       15.9994           0
     33279 TIP3     5315     TIP3     H1       HT       0.417000       1.00800           0
     33280 TIP3     5315     TIP3     H2       HT       0.417000       1.00800           0
     33281 TIP3     5316     TIP3     OH2      OT      -0.834000       15.9994           0
     33282 TIP3     5316     TIP3     H1       HT       0.417000       1.00800           0
     33283 TIP3     5316     TIP3     H2       HT       0.417000       1.00800           0
     33284 TIP3     5317     TIP3     OH2      OT      -0.834000       15.9994           0
     33285 TIP3     5317     TIP3     H1       HT       0.417000       1.00800           0
     33286 TIP3     5317     TIP3     H2       HT       0.417000       1.00800           0
     33287 TIP3     5318     TIP3     OH2      OT      -0.834000       15.9994           0
     33288 TIP3     5318     TIP3     H1       HT       0.417000       1.00800           0
     33289 TIP3     5318     TIP3     H2       HT       0.417000       1.00800           0
     33290 TIP3     5319     TIP3     OH2      OT      -0.834000       15.9994           0
     33291 TIP3     5319     TIP3     H1       HT       0.417000       1.00800           0
     33292 TIP3     5319     TIP3     H2       HT       0.417000       1.00800           0
     33293 TIP3     5320     TIP3     OH2      OT      -0.834000       15.9994           0
     33294 TIP3     5320     TIP3     H1       HT       0.417000       1.00800           0
     33295 TIP3     5320     TIP3     H2       HT       0.417000       1.00800           0
     33296 TIP3     5321     TIP3     OH2      OT      -0.834000       15.9994           0
     33297 TIP3     5321     TIP3     H1       HT       0.417000       1.00800           0
     33298 TIP3     5321     TIP3     H2       HT       0.417000       1.00800           0
     33299 TIP3     5322     TIP3     OH2      OT      -0.834000       15.9994           0
     33300 TIP3     5322     TIP3     H1       HT       0.417000       1.00800           0
     33301 TIP3     5322     TIP3     H2       HT       0.417000       1.00800           0
     33302 TIP3     5323     TIP3     OH2      OT      -0.834000       15.9994           0
     33303 TIP3     5323     TIP3     H1       HT       0.417000       1.00800           0
     33304 TIP3     5323     TIP3     H2       HT       0.417000       1.00800           0
     33305 TIP3     5324     TIP3     OH2      OT      -0.834000       15.9994           0
     33306 TIP3     5324     TIP3     H1       HT       0.417000       1.00800           0
     33307 TIP3     5324     TIP3     H2       HT       0.417000       1.00800           0
     33308 TIP3     5325     TIP3     OH2      OT      -0.834000       15.9994           0
     33309 TIP3     5325     TIP3     H1       HT       0.417000       1.00800           0
     33310 TIP3     5325     TIP3     H2       HT       0.417000       1.00800           0
     33311 TIP3     5326     TIP3     OH2      OT      -0.834000       15.9994           0
     33312 TIP3     5326     TIP3     H1       HT       0.417000       1.00800           0
     33313 TIP3     5326     TIP3     H2       HT       0.417000       1.00800           0
     33314 TIP3     5327     TIP3     OH2      OT      -0.834000       15.9994           0
     33315 TIP3     5327     TIP3     H1       HT       0.417000       1.00800           0
     33316 TIP3     5327     TIP3     H2       HT       0.417000       1.00800           0
     33317 TIP3     5328     TIP3     OH2      OT      -0.834000       15.9994           0
     33318 TIP3     5328     TIP3     H1       HT       0.417000       1.00800           0
     33319 TIP3     5328     TIP3     H2       HT       0.417000       1.00800           0
     33320 TIP3     5329     TIP3     OH2      OT      -0.834000       15.9994           0
     33321 TIP3     5329     TIP3     H1       HT       0.417000       1.00800           0
     33322 TIP3     5329     TIP3     H2       HT       0.417000       1.00800           0
     33323 TIP3     5330     TIP3     OH2      OT      -0.834000       15.9994           0
     33324 TIP3     5330     TIP3     H1       HT       0.417000       1.00800           0
     33325 TIP3     5330     TIP3     H2       HT       0.417000       1.00800           0
     33326 TIP3     5331     TIP3     OH2      OT      -0.834000       15.9994           0
     33327 TIP3     5331     TIP3     H1       HT       0.417000       1.00800           0
     33328 TIP3     5331     TIP3     H2       HT       0.417000       1.00800           0
     33329 TIP3     5332     TIP3     OH2      OT      -0.834000       15.9994           0
     33330 TIP3     5332     TIP3     H1       HT       0.417000       1.00800           0
     33331 TIP3     5332     TIP3     H2       HT       0.417000       1.00800           0
     33332 TIP3     5333     TIP3     OH2      OT      -0.834000       15.9994           0
     33333 TIP3     5333     TIP3     H1       HT       0.417000       1.00800           0
     33334 TIP3     5333     TIP3     H2       HT       0.417000       1.00800           0
     33335 TIP3     5334     TIP3     OH2      OT      -0.834000       15.9994           0
     33336 TIP3     5334     TIP3     H1       HT       0.417000       1.00800           0
     33337 TIP3     5334     TIP3     H2       HT       0.417000       1.00800           0
     33338 TIP3     5335     TIP3     OH2      OT      -0.834000       15.9994           0
     33339 TIP3     5335     TIP3     H1       HT       0.417000       1.00800           0
     33340 TIP3     5335     TIP3     H2       HT       0.417000       1.00800           0
     33341 TIP3     5336     TIP3     OH2      OT      -0.834000       15.9994           0
     33342 TIP3     5336     TIP3     H1       HT       0.417000       1.00800           0
     33343 TIP3     5336     TIP3     H2       HT       0.417000       1.00800           0
     33344 TIP3     5337     TIP3     OH2      OT      -0.834000       15.9994           0
     33345 TIP3     5337     TIP3     H1       HT       0.417000       1.00800           0
     33346 TIP3     5337     TIP3     H2       HT       0.417000       1.00800           0
     33347 TIP3     5338     TIP3     OH2      OT      -0.834000       15.9994           0
     33348 TIP3     5338     TIP3     H1       HT       0.417000       1.00800           0
     33349 TIP3     5338     TIP3     H2       HT       0.417000       1.00800           0
     33350 TIP3     5339     TIP3     OH2      OT      -0.834000       15.9994           0
     33351 TIP3     5339     TIP3     H1       HT       0.417000       1.00800           0
     33352 TIP3     5339     TIP3     H2       HT       0.417000       1.00800           0
     33353 TIP3     5340     TIP3     OH2      OT      -0.834000       15.9994           0
     33354 TIP3     5340     TIP3     H1       HT       0.417000       1.00800           0
     33355 TIP3     5340     TIP3     H2       HT       0.417000       1.00800           0
     33356 TIP3     5341     TIP3     OH2      OT      -0.834000       15.9994           0
     33357 TIP3     5341     TIP3     H1       HT       0.417000       1.00800           0
     33358 TIP3     5341     TIP3     H2       HT       0.417000       1.00800           0
     33359 TIP3     5342     TIP3     OH2      OT      -0.834000       15.9994           0
     33360 TIP3     5342     TIP3     H1       HT       0.417000       1.00800           0
     33361 TIP3     5342     TIP3     H2       HT       0.417000       1.00800           0
     33362 TIP3     5343     TIP3     OH2      OT      -0.834000       15.9994           0
     33363 TIP3     5343     TIP3     H1       HT       0.417000       1.00800           0
     33364 TIP3     5343     TIP3     H2       HT       0.417000       1.00800           0
     33365 TIP3     5344     TIP3     OH2      OT      -0.834000       15.9994           0
     33366 TIP3     5344     TIP3     H1       HT       0.417000       1.00800           0
     33367 TIP3     5344     TIP3     H2       HT       0.417000       1.00800           0
     33368 TIP3     5345     TIP3     OH2      OT      -0.834000       15.9994           0
     33369 TIP3     5345     TIP3     H1       HT       0.417000       1.00800           0
     33370 TIP3     5345     TIP3     H2       HT       0.417000       1.00800           0
     33371 TIP3     5346     TIP3     OH2      OT      -0.834000       15.9994           0
     33372 TIP3     5346     TIP3     H1       HT       0.417000       1.00800           0
     33373 TIP3     5346     TIP3     H2       HT       0.417000       1.00800           0
     33374 TIP3     5347     TIP3     OH2      OT      -0.834000       15.9994           0
     33375 TIP3     5347     TIP3     H1       HT       0.417000       1.00800           0
     33376 TIP3     5347     TIP3     H2       HT       0.417000       1.00800           0
     33377 TIP3     5348     TIP3     OH2      OT      -0.834000       15.9994           0
     33378 TIP3     5348     TIP3     H1       HT       0.417000       1.00800           0
     33379 TIP3     5348     TIP3     H2       HT       0.417000       1.00800           0
     33380 TIP3     5349     TIP3     OH2      OT      -0.834000       15.9994           0
     33381 TIP3     5349     TIP3     H1       HT       0.417000       1.00800           0
     33382 TIP3     5349     TIP3     H2       HT       0.417000       1.00800           0
     33383 TIP3     5350     TIP3     OH2      OT      -0.834000       15.9994           0
     33384 TIP3     5350     TIP3     H1       HT       0.417000       1.00800           0
     33385 TIP3     5350     TIP3     H2       HT       0.417000       1.00800           0
     33386 TIP3     5351     TIP3     OH2      OT      -0.834000       15.9994           0
     33387 TIP3     5351     TIP3     H1       HT       0.417000       1.00800           0
     33388 TIP3     5351     TIP3     H2       HT       0.417000       1.00800           0
     33389 TIP3     5352     TIP3     OH2      OT      -0.834000       15.9994           0
     33390 TIP3     5352     TIP3     H1       HT       0.417000       1.00800           0
     33391 TIP3     5352     TIP3     H2       HT       0.417000       1.00800           0
     33392 TIP3     5353     TIP3     OH2      OT      -0.834000       15.9994           0
     33393 TIP3     5353     TIP3     H1       HT       0.417000       1.00800           0
     33394 TIP3     5353     TIP3     H2       HT       0.417000       1.00800           0
     33395 TIP3     5354     TIP3     OH2      OT      -0.834000       15.9994           0
     33396 TIP3     5354     TIP3     H1       HT       0.417000       1.00800           0
     33397 TIP3     5354     TIP3     H2       HT       0.417000       1.00800           0
     33398 TIP3     5355     TIP3     OH2      OT      -0.834000       15.9994           0
     33399 TIP3     5355     TIP3     H1       HT       0.417000       1.00800           0
     33400 TIP3     5355     TIP3     H2       HT       0.417000       1.00800           0
     33401 TIP3     5356     TIP3     OH2      OT      -0.834000       15.9994           0
     33402 TIP3     5356     TIP3     H1       HT       0.417000       1.00800           0
     33403 TIP3     5356     TIP3     H2       HT       0.417000       1.00800           0
     33404 TIP3     5357     TIP3     OH2      OT      -0.834000       15.9994           0
     33405 TIP3     5357     TIP3     H1       HT       0.417000       1.00800           0
     33406 TIP3     5357     TIP3     H2       HT       0.417000       1.00800           0
     33407 TIP3     5358     TIP3     OH2      OT      -0.834000       15.9994           0
     33408 TIP3     5358     TIP3     H1       HT       0.417000       1.00800           0
     33409 TIP3     5358     TIP3     H2       HT       0.417000       1.00800           0
     33410 TIP3     5359     TIP3     OH2      OT      -0.834000       15.9994           0
     33411 TIP3     5359     TIP3     H1       HT       0.417000       1.00800           0
     33412 TIP3     5359     TIP3     H2       HT       0.417000       1.00800           0
     33413 TIP3     5360     TIP3     OH2      OT      -0.834000       15.9994           0
     33414 TIP3     5360     TIP3     H1       HT       0.417000       1.00800           0
     33415 TIP3     5360     TIP3     H2       HT       0.417000       1.00800           0
     33416 TIP3     5361     TIP3     OH2      OT      -0.834000       15.9994           0
     33417 TIP3     5361     TIP3     H1       HT       0.417000       1.00800           0
     33418 TIP3     5361     TIP3     H2       HT       0.417000       1.00800           0
     33419 TIP3     5362     TIP3     OH2      OT      -0.834000       15.9994           0
     33420 TIP3     5362     TIP3     H1       HT       0.417000       1.00800           0
     33421 TIP3     5362     TIP3     H2       HT       0.417000       1.00800           0
     33422 TIP3     5363     TIP3     OH2      OT      -0.834000       15.9994           0
     33423 TIP3     5363     TIP3     H1       HT       0.417000       1.00800           0
     33424 TIP3     5363     TIP3     H2       HT       0.417000       1.00800           0
     33425 TIP3     5364     TIP3     OH2      OT      -0.834000       15.9994           0
     33426 TIP3     5364     TIP3     H1       HT       0.417000       1.00800           0
     33427 TIP3     5364     TIP3     H2       HT       0.417000       1.00800           0
     33428 TIP3     5365     TIP3     OH2      OT      -0.834000       15.9994           0
     33429 TIP3     5365     TIP3     H1       HT       0.417000       1.00800           0
     33430 TIP3     5365     TIP3     H2       HT       0.417000       1.00800           0
     33431 TIP3     5366     TIP3     OH2      OT      -0.834000       15.9994           0
     33432 TIP3     5366     TIP3     H1       HT       0.417000       1.00800           0
     33433 TIP3     5366     TIP3     H2       HT       0.417000       1.00800           0
     33434 TIP3     5367     TIP3     OH2      OT      -0.834000       15.9994           0
     33435 TIP3     5367     TIP3     H1       HT       0.417000       1.00800           0
     33436 TIP3     5367     TIP3     H2       HT       0.417000       1.00800           0
     33437 TIP3     5368     TIP3     OH2      OT      -0.834000       15.9994           0
     33438 TIP3     5368     TIP3     H1       HT       0.417000       1.00800           0
     33439 TIP3     5368     TIP3     H2       HT       0.417000       1.00800           0
     33440 TIP3     5369     TIP3     OH2      OT      -0.834000       15.9994           0
     33441 TIP3     5369     TIP3     H1       HT       0.417000       1.00800           0
     33442 TIP3     5369     TIP3     H2       HT       0.417000       1.00800           0
     33443 TIP3     5370     TIP3     OH2      OT      -0.834000       15.9994           0
     33444 TIP3     5370     TIP3     H1       HT       0.417000       1.00800           0
     33445 TIP3     5370     TIP3     H2       HT       0.417000       1.00800           0
     33446 TIP3     5371     TIP3     OH2      OT      -0.834000       15.9994           0
     33447 TIP3     5371     TIP3     H1       HT       0.417000       1.00800           0
     33448 TIP3     5371     TIP3     H2       HT       0.417000       1.00800           0
     33449 TIP3     5372     TIP3     OH2      OT      -0.834000       15.9994           0
     33450 TIP3     5372     TIP3     H1       HT       0.417000       1.00800           0
     33451 TIP3     5372     TIP3     H2       HT       0.417000       1.00800           0
     33452 TIP3     5373     TIP3     OH2      OT      -0.834000       15.9994           0
     33453 TIP3     5373     TIP3     H1       HT       0.417000       1.00800           0
     33454 TIP3     5373     TIP3     H2       HT       0.417000       1.00800           0
     33455 TIP3     5374     TIP3     OH2      OT      -0.834000       15.9994           0
     33456 TIP3     5374     TIP3     H1       HT       0.417000       1.00800           0
     33457 TIP3     5374     TIP3     H2       HT       0.417000       1.00800           0
     33458 TIP3     5375     TIP3     OH2      OT      -0.834000       15.9994           0
     33459 TIP3     5375     TIP3     H1       HT       0.417000       1.00800           0
     33460 TIP3     5375     TIP3     H2       HT       0.417000       1.00800           0
     33461 TIP3     5376     TIP3     OH2      OT      -0.834000       15.9994           0
     33462 TIP3     5376     TIP3     H1       HT       0.417000       1.00800           0
     33463 TIP3     5376     TIP3     H2       HT       0.417000       1.00800           0
     33464 TIP3     5377     TIP3     OH2      OT      -0.834000       15.9994           0
     33465 TIP3     5377     TIP3     H1       HT       0.417000       1.00800           0
     33466 TIP3     5377     TIP3     H2       HT       0.417000       1.00800           0
     33467 TIP3     5378     TIP3     OH2      OT      -0.834000       15.9994           0
     33468 TIP3     5378     TIP3     H1       HT       0.417000       1.00800           0
     33469 TIP3     5378     TIP3     H2       HT       0.417000       1.00800           0
     33470 TIP3     5379     TIP3     OH2      OT      -0.834000       15.9994           0
     33471 TIP3     5379     TIP3     H1       HT       0.417000       1.00800           0
     33472 TIP3     5379     TIP3     H2       HT       0.417000       1.00800           0
     33473 TIP3     5380     TIP3     OH2      OT      -0.834000       15.9994           0
     33474 TIP3     5380     TIP3     H1       HT       0.417000       1.00800           0
     33475 TIP3     5380     TIP3     H2       HT       0.417000       1.00800           0
     33476 TIP3     5381     TIP3     OH2      OT      -0.834000       15.9994           0
     33477 TIP3     5381     TIP3     H1       HT       0.417000       1.00800           0
     33478 TIP3     5381     TIP3     H2       HT       0.417000       1.00800           0
     33479 TIP3     5382     TIP3     OH2      OT      -0.834000       15.9994           0
     33480 TIP3     5382     TIP3     H1       HT       0.417000       1.00800           0
     33481 TIP3     5382     TIP3     H2       HT       0.417000       1.00800           0
     33482 TIP3     5383     TIP3     OH2      OT      -0.834000       15.9994           0
     33483 TIP3     5383     TIP3     H1       HT       0.417000       1.00800           0
     33484 TIP3     5383     TIP3     H2       HT       0.417000       1.00800           0
     33485 TIP3     5384     TIP3     OH2      OT      -0.834000       15.9994           0
     33486 TIP3     5384     TIP3     H1       HT       0.417000       1.00800           0
     33487 TIP3     5384     TIP3     H2       HT       0.417000       1.00800           0
     33488 TIP3     5385     TIP3     OH2      OT      -0.834000       15.9994           0
     33489 TIP3     5385     TIP3     H1       HT       0.417000       1.00800           0
     33490 TIP3     5385     TIP3     H2       HT       0.417000       1.00800           0
     33491 TIP3     5386     TIP3     OH2      OT      -0.834000       15.9994           0
     33492 TIP3     5386     TIP3     H1       HT       0.417000       1.00800           0
     33493 TIP3     5386     TIP3     H2       HT       0.417000       1.00800           0
     33494 TIP3     5387     TIP3     OH2      OT      -0.834000       15.9994           0
     33495 TIP3     5387     TIP3     H1       HT       0.417000       1.00800           0
     33496 TIP3     5387     TIP3     H2       HT       0.417000       1.00800           0
     33497 TIP3     5388     TIP3     OH2      OT      -0.834000       15.9994           0
     33498 TIP3     5388     TIP3     H1       HT       0.417000       1.00800           0
     33499 TIP3     5388     TIP3     H2       HT       0.417000       1.00800           0
     33500 TIP3     5389     TIP3     OH2      OT      -0.834000       15.9994           0
     33501 TIP3     5389     TIP3     H1       HT       0.417000       1.00800           0
     33502 TIP3     5389     TIP3     H2       HT       0.417000       1.00800           0
     33503 TIP3     5390     TIP3     OH2      OT      -0.834000       15.9994           0
     33504 TIP3     5390     TIP3     H1       HT       0.417000       1.00800           0
     33505 TIP3     5390     TIP3     H2       HT       0.417000       1.00800           0
     33506 TIP3     5391     TIP3     OH2      OT      -0.834000       15.9994           0
     33507 TIP3     5391     TIP3     H1       HT       0.417000       1.00800           0
     33508 TIP3     5391     TIP3     H2       HT       0.417000       1.00800           0
     33509 TIP3     5392     TIP3     OH2      OT      -0.834000       15.9994           0
     33510 TIP3     5392     TIP3     H1       HT       0.417000       1.00800           0
     33511 TIP3     5392     TIP3     H2       HT       0.417000       1.00800           0
     33512 TIP3     5393     TIP3     OH2      OT      -0.834000       15.9994           0
     33513 TIP3     5393     TIP3     H1       HT       0.417000       1.00800           0
     33514 TIP3     5393     TIP3     H2       HT       0.417000       1.00800           0
     33515 TIP3     5394     TIP3     OH2      OT      -0.834000       15.9994           0
     33516 TIP3     5394     TIP3     H1       HT       0.417000       1.00800           0
     33517 TIP3     5394     TIP3     H2       HT       0.417000       1.00800           0
     33518 TIP3     5395     TIP3     OH2      OT      -0.834000       15.9994           0
     33519 TIP3     5395     TIP3     H1       HT       0.417000       1.00800           0
     33520 TIP3     5395     TIP3     H2       HT       0.417000       1.00800           0
     33521 TIP3     5396     TIP3     OH2      OT      -0.834000       15.9994           0
     33522 TIP3     5396     TIP3     H1       HT       0.417000       1.00800           0
     33523 TIP3     5396     TIP3     H2       HT       0.417000       1.00800           0
     33524 TIP3     5397     TIP3     OH2      OT      -0.834000       15.9994           0
     33525 TIP3     5397     TIP3     H1       HT       0.417000       1.00800           0
     33526 TIP3     5397     TIP3     H2       HT       0.417000       1.00800           0
     33527 TIP3     5398     TIP3     OH2      OT      -0.834000       15.9994           0
     33528 TIP3     5398     TIP3     H1       HT       0.417000       1.00800           0
     33529 TIP3     5398     TIP3     H2       HT       0.417000       1.00800           0
     33530 TIP3     5399     TIP3     OH2      OT      -0.834000       15.9994           0
     33531 TIP3     5399     TIP3     H1       HT       0.417000       1.00800           0
     33532 TIP3     5399     TIP3     H2       HT       0.417000       1.00800           0
     33533 TIP3     5400     TIP3     OH2      OT      -0.834000       15.9994           0
     33534 TIP3     5400     TIP3     H1       HT       0.417000       1.00800           0
     33535 TIP3     5400     TIP3     H2       HT       0.417000       1.00800           0
     33536 TIP3     5401     TIP3     OH2      OT      -0.834000       15.9994           0
     33537 TIP3     5401     TIP3     H1       HT       0.417000       1.00800           0
     33538 TIP3     5401     TIP3     H2       HT       0.417000       1.00800           0
     33539 TIP3     5402     TIP3     OH2      OT      -0.834000       15.9994           0
     33540 TIP3     5402     TIP3     H1       HT       0.417000       1.00800           0
     33541 TIP3     5402     TIP3     H2       HT       0.417000       1.00800           0
     33542 TIP3     5403     TIP3     OH2      OT      -0.834000       15.9994           0
     33543 TIP3     5403     TIP3     H1       HT       0.417000       1.00800           0
     33544 TIP3     5403     TIP3     H2       HT       0.417000       1.00800           0
     33545 TIP3     5404     TIP3     OH2      OT      -0.834000       15.9994           0
     33546 TIP3     5404     TIP3     H1       HT       0.417000       1.00800           0
     33547 TIP3     5404     TIP3     H2       HT       0.417000       1.00800           0
     33548 TIP3     5405     TIP3     OH2      OT      -0.834000       15.9994           0
     33549 TIP3     5405     TIP3     H1       HT       0.417000       1.00800           0
     33550 TIP3     5405     TIP3     H2       HT       0.417000       1.00800           0
     33551 TIP3     5406     TIP3     OH2      OT      -0.834000       15.9994           0
     33552 TIP3     5406     TIP3     H1       HT       0.417000       1.00800           0
     33553 TIP3     5406     TIP3     H2       HT       0.417000       1.00800           0
     33554 TIP3     5407     TIP3     OH2      OT      -0.834000       15.9994           0
     33555 TIP3     5407     TIP3     H1       HT       0.417000       1.00800           0
     33556 TIP3     5407     TIP3     H2       HT       0.417000       1.00800           0
     33557 TIP3     5408     TIP3     OH2      OT      -0.834000       15.9994           0
     33558 TIP3     5408     TIP3     H1       HT       0.417000       1.00800           0
     33559 TIP3     5408     TIP3     H2       HT       0.417000       1.00800           0
     33560 TIP3     5409     TIP3     OH2      OT      -0.834000       15.9994           0
     33561 TIP3     5409     TIP3     H1       HT       0.417000       1.00800           0
     33562 TIP3     5409     TIP3     H2       HT       0.417000       1.00800           0
     33563 TIP3     5410     TIP3     OH2      OT      -0.834000       15.9994           0
     33564 TIP3     5410     TIP3     H1       HT       0.417000       1.00800           0
     33565 TIP3     5410     TIP3     H2       HT       0.417000       1.00800           0
     33566 TIP3     5411     TIP3     OH2      OT      -0.834000       15.9994           0
     33567 TIP3     5411     TIP3     H1       HT       0.417000       1.00800           0
     33568 TIP3     5411     TIP3     H2       HT       0.417000       1.00800           0
     33569 TIP3     5412     TIP3     OH2      OT      -0.834000       15.9994           0
     33570 TIP3     5412     TIP3     H1       HT       0.417000       1.00800           0
     33571 TIP3     5412     TIP3     H2       HT       0.417000       1.00800           0
     33572 TIP3     5413     TIP3     OH2      OT      -0.834000       15.9994           0
     33573 TIP3     5413     TIP3     H1       HT       0.417000       1.00800           0
     33574 TIP3     5413     TIP3     H2       HT       0.417000       1.00800           0
     33575 TIP3     5414     TIP3     OH2      OT      -0.834000       15.9994           0
     33576 TIP3     5414     TIP3     H1       HT       0.417000       1.00800           0
     33577 TIP3     5414     TIP3     H2       HT       0.417000       1.00800           0
     33578 TIP3     5415     TIP3     OH2      OT      -0.834000       15.9994           0
     33579 TIP3     5415     TIP3     H1       HT       0.417000       1.00800           0
     33580 TIP3     5415     TIP3     H2       HT       0.417000       1.00800           0
     33581 TIP3     5416     TIP3     OH2      OT      -0.834000       15.9994           0
     33582 TIP3     5416     TIP3     H1       HT       0.417000       1.00800           0
     33583 TIP3     5416     TIP3     H2       HT       0.417000       1.00800           0
     33584 TIP3     5417     TIP3     OH2      OT      -0.834000       15.9994           0
     33585 TIP3     5417     TIP3     H1       HT       0.417000       1.00800           0
     33586 TIP3     5417     TIP3     H2       HT       0.417000       1.00800           0
     33587 TIP3     5418     TIP3     OH2      OT      -0.834000       15.9994           0
     33588 TIP3     5418     TIP3     H1       HT       0.417000       1.00800           0
     33589 TIP3     5418     TIP3     H2       HT       0.417000       1.00800           0
     33590 TIP3     5419     TIP3     OH2      OT      -0.834000       15.9994           0
     33591 TIP3     5419     TIP3     H1       HT       0.417000       1.00800           0
     33592 TIP3     5419     TIP3     H2       HT       0.417000       1.00800           0
     33593 TIP3     5420     TIP3     OH2      OT      -0.834000       15.9994           0
     33594 TIP3     5420     TIP3     H1       HT       0.417000       1.00800           0
     33595 TIP3     5420     TIP3     H2       HT       0.417000       1.00800           0
     33596 TIP3     5421     TIP3     OH2      OT      -0.834000       15.9994           0
     33597 TIP3     5421     TIP3     H1       HT       0.417000       1.00800           0
     33598 TIP3     5421     TIP3     H2       HT       0.417000       1.00800           0
     33599 TIP3     5422     TIP3     OH2      OT      -0.834000       15.9994           0
     33600 TIP3     5422     TIP3     H1       HT       0.417000       1.00800           0
     33601 TIP3     5422     TIP3     H2       HT       0.417000       1.00800           0
     33602 TIP3     5423     TIP3     OH2      OT      -0.834000       15.9994           0
     33603 TIP3     5423     TIP3     H1       HT       0.417000       1.00800           0
     33604 TIP3     5423     TIP3     H2       HT       0.417000       1.00800           0
     33605 TIP3     5424     TIP3     OH2      OT      -0.834000       15.9994           0
     33606 TIP3     5424     TIP3     H1       HT       0.417000       1.00800           0
     33607 TIP3     5424     TIP3     H2       HT       0.417000       1.00800           0
     33608 TIP3     5425     TIP3     OH2      OT      -0.834000       15.9994           0
     33609 TIP3     5425     TIP3     H1       HT       0.417000       1.00800           0
     33610 TIP3     5425     TIP3     H2       HT       0.417000       1.00800           0
     33611 TIP3     5426     TIP3     OH2      OT      -0.834000       15.9994           0
     33612 TIP3     5426     TIP3     H1       HT       0.417000       1.00800           0
     33613 TIP3     5426     TIP3     H2       HT       0.417000       1.00800           0
     33614 TIP3     5427     TIP3     OH2      OT      -0.834000       15.9994           0
     33615 TIP3     5427     TIP3     H1       HT       0.417000       1.00800           0
     33616 TIP3     5427     TIP3     H2       HT       0.417000       1.00800           0
     33617 TIP3     5428     TIP3     OH2      OT      -0.834000       15.9994           0
     33618 TIP3     5428     TIP3     H1       HT       0.417000       1.00800           0
     33619 TIP3     5428     TIP3     H2       HT       0.417000       1.00800           0
     33620 TIP3     5429     TIP3     OH2      OT      -0.834000       15.9994           0
     33621 TIP3     5429     TIP3     H1       HT       0.417000       1.00800           0
     33622 TIP3     5429     TIP3     H2       HT       0.417000       1.00800           0
     33623 TIP3     5430     TIP3     OH2      OT      -0.834000       15.9994           0
     33624 TIP3     5430     TIP3     H1       HT       0.417000       1.00800           0
     33625 TIP3     5430     TIP3     H2       HT       0.417000       1.00800           0
     33626 TIP3     5431     TIP3     OH2      OT      -0.834000       15.9994           0
     33627 TIP3     5431     TIP3     H1       HT       0.417000       1.00800           0
     33628 TIP3     5431     TIP3     H2       HT       0.417000       1.00800           0
     33629 TIP3     5432     TIP3     OH2      OT      -0.834000       15.9994           0
     33630 TIP3     5432     TIP3     H1       HT       0.417000       1.00800           0
     33631 TIP3     5432     TIP3     H2       HT       0.417000       1.00800           0
     33632 TIP3     5433     TIP3     OH2      OT      -0.834000       15.9994           0
     33633 TIP3     5433     TIP3     H1       HT       0.417000       1.00800           0
     33634 TIP3     5433     TIP3     H2       HT       0.417000       1.00800           0
     33635 TIP3     5434     TIP3     OH2      OT      -0.834000       15.9994           0
     33636 TIP3     5434     TIP3     H1       HT       0.417000       1.00800           0
     33637 TIP3     5434     TIP3     H2       HT       0.417000       1.00800           0
     33638 TIP3     5435     TIP3     OH2      OT      -0.834000       15.9994           0
     33639 TIP3     5435     TIP3     H1       HT       0.417000       1.00800           0
     33640 TIP3     5435     TIP3     H2       HT       0.417000       1.00800           0
     33641 TIP3     5436     TIP3     OH2      OT      -0.834000       15.9994           0
     33642 TIP3     5436     TIP3     H1       HT       0.417000       1.00800           0
     33643 TIP3     5436     TIP3     H2       HT       0.417000       1.00800           0
     33644 TIP3     5437     TIP3     OH2      OT      -0.834000       15.9994           0
     33645 TIP3     5437     TIP3     H1       HT       0.417000       1.00800           0
     33646 TIP3     5437     TIP3     H2       HT       0.417000       1.00800           0
     33647 TIP3     5438     TIP3     OH2      OT      -0.834000       15.9994           0
     33648 TIP3     5438     TIP3     H1       HT       0.417000       1.00800           0
     33649 TIP3     5438     TIP3     H2       HT       0.417000       1.00800           0
     33650 TIP3     5439     TIP3     OH2      OT      -0.834000       15.9994           0
     33651 TIP3     5439     TIP3     H1       HT       0.417000       1.00800           0
     33652 TIP3     5439     TIP3     H2       HT       0.417000       1.00800           0
     33653 TIP3     5440     TIP3     OH2      OT      -0.834000       15.9994           0
     33654 TIP3     5440     TIP3     H1       HT       0.417000       1.00800           0
     33655 TIP3     5440     TIP3     H2       HT       0.417000       1.00800           0
     33656 TIP3     5441     TIP3     OH2      OT      -0.834000       15.9994           0
     33657 TIP3     5441     TIP3     H1       HT       0.417000       1.00800           0
     33658 TIP3     5441     TIP3     H2       HT       0.417000       1.00800           0
     33659 TIP3     5442     TIP3     OH2      OT      -0.834000       15.9994           0
     33660 TIP3     5442     TIP3     H1       HT       0.417000       1.00800           0
     33661 TIP3     5442     TIP3     H2       HT       0.417000       1.00800           0
     33662 TIP3     5443     TIP3     OH2      OT      -0.834000       15.9994           0
     33663 TIP3     5443     TIP3     H1       HT       0.417000       1.00800           0
     33664 TIP3     5443     TIP3     H2       HT       0.417000       1.00800           0
     33665 TIP3     5444     TIP3     OH2      OT      -0.834000       15.9994           0
     33666 TIP3     5444     TIP3     H1       HT       0.417000       1.00800           0
     33667 TIP3     5444     TIP3     H2       HT       0.417000       1.00800           0
     33668 TIP3     5445     TIP3     OH2      OT      -0.834000       15.9994           0
     33669 TIP3     5445     TIP3     H1       HT       0.417000       1.00800           0
     33670 TIP3     5445     TIP3     H2       HT       0.417000       1.00800           0
     33671 TIP3     5446     TIP3     OH2      OT      -0.834000       15.9994           0
     33672 TIP3     5446     TIP3     H1       HT       0.417000       1.00800           0
     33673 TIP3     5446     TIP3     H2       HT       0.417000       1.00800           0
     33674 TIP3     5447     TIP3     OH2      OT      -0.834000       15.9994           0
     33675 TIP3     5447     TIP3     H1       HT       0.417000       1.00800           0
     33676 TIP3     5447     TIP3     H2       HT       0.417000       1.00800           0
     33677 TIP3     5448     TIP3     OH2      OT      -0.834000       15.9994           0
     33678 TIP3     5448     TIP3     H1       HT       0.417000       1.00800           0
     33679 TIP3     5448     TIP3     H2       HT       0.417000       1.00800           0
     33680 TIP3     5449     TIP3     OH2      OT      -0.834000       15.9994           0
     33681 TIP3     5449     TIP3     H1       HT       0.417000       1.00800           0
     33682 TIP3     5449     TIP3     H2       HT       0.417000       1.00800           0
     33683 TIP3     5450     TIP3     OH2      OT      -0.834000       15.9994           0
     33684 TIP3     5450     TIP3     H1       HT       0.417000       1.00800           0
     33685 TIP3     5450     TIP3     H2       HT       0.417000       1.00800           0
     33686 TIP3     5451     TIP3     OH2      OT      -0.834000       15.9994           0
     33687 TIP3     5451     TIP3     H1       HT       0.417000       1.00800           0
     33688 TIP3     5451     TIP3     H2       HT       0.417000       1.00800           0
     33689 TIP3     5452     TIP3     OH2      OT      -0.834000       15.9994           0
     33690 TIP3     5452     TIP3     H1       HT       0.417000       1.00800           0
     33691 TIP3     5452     TIP3     H2       HT       0.417000       1.00800           0
     33692 TIP3     5453     TIP3     OH2      OT      -0.834000       15.9994           0
     33693 TIP3     5453     TIP3     H1       HT       0.417000       1.00800           0
     33694 TIP3     5453     TIP3     H2       HT       0.417000       1.00800           0
     33695 TIP3     5454     TIP3     OH2      OT      -0.834000       15.9994           0
     33696 TIP3     5454     TIP3     H1       HT       0.417000       1.00800           0
     33697 TIP3     5454     TIP3     H2       HT       0.417000       1.00800           0
     33698 TIP3     5455     TIP3     OH2      OT      -0.834000       15.9994           0
     33699 TIP3     5455     TIP3     H1       HT       0.417000       1.00800           0
     33700 TIP3     5455     TIP3     H2       HT       0.417000       1.00800           0
     33701 TIP3     5456     TIP3     OH2      OT      -0.834000       15.9994           0
     33702 TIP3     5456     TIP3     H1       HT       0.417000       1.00800           0
     33703 TIP3     5456     TIP3     H2       HT       0.417000       1.00800           0
     33704 TIP3     5457     TIP3     OH2      OT      -0.834000       15.9994           0
     33705 TIP3     5457     TIP3     H1       HT       0.417000       1.00800           0
     33706 TIP3     5457     TIP3     H2       HT       0.417000       1.00800           0
     33707 TIP3     5458     TIP3     OH2      OT      -0.834000       15.9994           0
     33708 TIP3     5458     TIP3     H1       HT       0.417000       1.00800           0
     33709 TIP3     5458     TIP3     H2       HT       0.417000       1.00800           0
     33710 TIP3     5459     TIP3     OH2      OT      -0.834000       15.9994           0
     33711 TIP3     5459     TIP3     H1       HT       0.417000       1.00800           0
     33712 TIP3     5459     TIP3     H2       HT       0.417000       1.00800           0
     33713 TIP3     5460     TIP3     OH2      OT      -0.834000       15.9994           0
     33714 TIP3     5460     TIP3     H1       HT       0.417000       1.00800           0
     33715 TIP3     5460     TIP3     H2       HT       0.417000       1.00800           0
     33716 TIP3     5461     TIP3     OH2      OT      -0.834000       15.9994           0
     33717 TIP3     5461     TIP3     H1       HT       0.417000       1.00800           0
     33718 TIP3     5461     TIP3     H2       HT       0.417000       1.00800           0
     33719 TIP3     5462     TIP3     OH2      OT      -0.834000       15.9994           0
     33720 TIP3     5462     TIP3     H1       HT       0.417000       1.00800           0
     33721 TIP3     5462     TIP3     H2       HT       0.417000       1.00800           0
     33722 TIP3     5463     TIP3     OH2      OT      -0.834000       15.9994           0
     33723 TIP3     5463     TIP3     H1       HT       0.417000       1.00800           0
     33724 TIP3     5463     TIP3     H2       HT       0.417000       1.00800           0
     33725 TIP3     5464     TIP3     OH2      OT      -0.834000       15.9994           0
     33726 TIP3     5464     TIP3     H1       HT       0.417000       1.00800           0
     33727 TIP3     5464     TIP3     H2       HT       0.417000       1.00800           0
     33728 TIP3     5465     TIP3     OH2      OT      -0.834000       15.9994           0
     33729 TIP3     5465     TIP3     H1       HT       0.417000       1.00800           0
     33730 TIP3     5465     TIP3     H2       HT       0.417000       1.00800           0
     33731 TIP3     5466     TIP3     OH2      OT      -0.834000       15.9994           0
     33732 TIP3     5466     TIP3     H1       HT       0.417000       1.00800           0
     33733 TIP3     5466     TIP3     H2       HT       0.417000       1.00800           0
     33734 TIP3     5467     TIP3     OH2      OT      -0.834000       15.9994           0
     33735 TIP3     5467     TIP3     H1       HT       0.417000       1.00800           0
     33736 TIP3     5467     TIP3     H2       HT       0.417000       1.00800           0
     33737 TIP3     5468     TIP3     OH2      OT      -0.834000       15.9994           0
     33738 TIP3     5468     TIP3     H1       HT       0.417000       1.00800           0
     33739 TIP3     5468     TIP3     H2       HT       0.417000       1.00800           0
     33740 TIP3     5469     TIP3     OH2      OT      -0.834000       15.9994           0
     33741 TIP3     5469     TIP3     H1       HT       0.417000       1.00800           0
     33742 TIP3     5469     TIP3     H2       HT       0.417000       1.00800           0
     33743 TIP3     5470     TIP3     OH2      OT      -0.834000       15.9994           0
     33744 TIP3     5470     TIP3     H1       HT       0.417000       1.00800           0
     33745 TIP3     5470     TIP3     H2       HT       0.417000       1.00800           0
     33746 TIP3     5471     TIP3     OH2      OT      -0.834000       15.9994           0
     33747 TIP3     5471     TIP3     H1       HT       0.417000       1.00800           0
     33748 TIP3     5471     TIP3     H2       HT       0.417000       1.00800           0
     33749 TIP3     5472     TIP3     OH2      OT      -0.834000       15.9994           0
     33750 TIP3     5472     TIP3     H1       HT       0.417000       1.00800           0
     33751 TIP3     5472     TIP3     H2       HT       0.417000       1.00800           0
     33752 TIP3     5473     TIP3     OH2      OT      -0.834000       15.9994           0
     33753 TIP3     5473     TIP3     H1       HT       0.417000       1.00800           0
     33754 TIP3     5473     TIP3     H2       HT       0.417000       1.00800           0
     33755 TIP3     5474     TIP3     OH2      OT      -0.834000       15.9994           0
     33756 TIP3     5474     TIP3     H1       HT       0.417000       1.00800           0
     33757 TIP3     5474     TIP3     H2       HT       0.417000       1.00800           0
     33758 TIP3     5475     TIP3     OH2      OT      -0.834000       15.9994           0
     33759 TIP3     5475     TIP3     H1       HT       0.417000       1.00800           0
     33760 TIP3     5475     TIP3     H2       HT       0.417000       1.00800           0
     33761 TIP3     5476     TIP3     OH2      OT      -0.834000       15.9994           0
     33762 TIP3     5476     TIP3     H1       HT       0.417000       1.00800           0
     33763 TIP3     5476     TIP3     H2       HT       0.417000       1.00800           0
     33764 TIP3     5477     TIP3     OH2      OT      -0.834000       15.9994           0
     33765 TIP3     5477     TIP3     H1       HT       0.417000       1.00800           0
     33766 TIP3     5477     TIP3     H2       HT       0.417000       1.00800           0
     33767 TIP3     5478     TIP3     OH2      OT      -0.834000       15.9994           0
     33768 TIP3     5478     TIP3     H1       HT       0.417000       1.00800           0
     33769 TIP3     5478     TIP3     H2       HT       0.417000       1.00800           0
     33770 TIP3     5479     TIP3     OH2      OT      -0.834000       15.9994           0
     33771 TIP3     5479     TIP3     H1       HT       0.417000       1.00800           0
     33772 TIP3     5479     TIP3     H2       HT       0.417000       1.00800           0
     33773 TIP3     5480     TIP3     OH2      OT      -0.834000       15.9994           0
     33774 TIP3     5480     TIP3     H1       HT       0.417000       1.00800           0
     33775 TIP3     5480     TIP3     H2       HT       0.417000       1.00800           0
     33776 TIP3     5481     TIP3     OH2      OT      -0.834000       15.9994           0
     33777 TIP3     5481     TIP3     H1       HT       0.417000       1.00800           0
     33778 TIP3     5481     TIP3     H2       HT       0.417000       1.00800           0
     33779 TIP3     5482     TIP3     OH2      OT      -0.834000       15.9994           0
     33780 TIP3     5482     TIP3     H1       HT       0.417000       1.00800           0
     33781 TIP3     5482     TIP3     H2       HT       0.417000       1.00800           0
     33782 TIP3     5483     TIP3     OH2      OT      -0.834000       15.9994           0
     33783 TIP3     5483     TIP3     H1       HT       0.417000       1.00800           0
     33784 TIP3     5483     TIP3     H2       HT       0.417000       1.00800           0
     33785 TIP3     5484     TIP3     OH2      OT      -0.834000       15.9994           0
     33786 TIP3     5484     TIP3     H1       HT       0.417000       1.00800           0
     33787 TIP3     5484     TIP3     H2       HT       0.417000       1.00800           0
     33788 TIP3     5485     TIP3     OH2      OT      -0.834000       15.9994           0
     33789 TIP3     5485     TIP3     H1       HT       0.417000       1.00800           0
     33790 TIP3     5485     TIP3     H2       HT       0.417000       1.00800           0
     33791 TIP3     5486     TIP3     OH2      OT      -0.834000       15.9994           0
     33792 TIP3     5486     TIP3     H1       HT       0.417000       1.00800           0
     33793 TIP3     5486     TIP3     H2       HT       0.417000       1.00800           0
     33794 TIP3     5487     TIP3     OH2      OT      -0.834000       15.9994           0
     33795 TIP3     5487     TIP3     H1       HT       0.417000       1.00800           0
     33796 TIP3     5487     TIP3     H2       HT       0.417000       1.00800           0
     33797 TIP3     5488     TIP3     OH2      OT      -0.834000       15.9994           0
     33798 TIP3     5488     TIP3     H1       HT       0.417000       1.00800           0
     33799 TIP3     5488     TIP3     H2       HT       0.417000       1.00800           0
     33800 TIP3     5489     TIP3     OH2      OT      -0.834000       15.9994           0
     33801 TIP3     5489     TIP3     H1       HT       0.417000       1.00800           0
     33802 TIP3     5489     TIP3     H2       HT       0.417000       1.00800           0
     33803 TIP3     5490     TIP3     OH2      OT      -0.834000       15.9994           0
     33804 TIP3     5490     TIP3     H1       HT       0.417000       1.00800           0
     33805 TIP3     5490     TIP3     H2       HT       0.417000       1.00800           0
     33806 TIP3     5491     TIP3     OH2      OT      -0.834000       15.9994           0
     33807 TIP3     5491     TIP3     H1       HT       0.417000       1.00800           0
     33808 TIP3     5491     TIP3     H2       HT       0.417000       1.00800           0
     33809 TIP3     5492     TIP3     OH2      OT      -0.834000       15.9994           0
     33810 TIP3     5492     TIP3     H1       HT       0.417000       1.00800           0
     33811 TIP3     5492     TIP3     H2       HT       0.417000       1.00800           0
     33812 TIP3     5493     TIP3     OH2      OT      -0.834000       15.9994           0
     33813 TIP3     5493     TIP3     H1       HT       0.417000       1.00800           0
     33814 TIP3     5493     TIP3     H2       HT       0.417000       1.00800           0
     33815 TIP3     5494     TIP3     OH2      OT      -0.834000       15.9994           0
     33816 TIP3     5494     TIP3     H1       HT       0.417000       1.00800           0
     33817 TIP3     5494     TIP3     H2       HT       0.417000       1.00800           0
     33818 TIP3     5495     TIP3     OH2      OT      -0.834000       15.9994           0
     33819 TIP3     5495     TIP3     H1       HT       0.417000       1.00800           0
     33820 TIP3     5495     TIP3     H2       HT       0.417000       1.00800           0
     33821 TIP3     5496     TIP3     OH2      OT      -0.834000       15.9994           0
     33822 TIP3     5496     TIP3     H1       HT       0.417000       1.00800           0
     33823 TIP3     5496     TIP3     H2       HT       0.417000       1.00800           0
     33824 TIP3     5497     TIP3     OH2      OT      -0.834000       15.9994           0
     33825 TIP3     5497     TIP3     H1       HT       0.417000       1.00800           0
     33826 TIP3     5497     TIP3     H2       HT       0.417000       1.00800           0
     33827 TIP3     5498     TIP3     OH2      OT      -0.834000       15.9994           0
     33828 TIP3     5498     TIP3     H1       HT       0.417000       1.00800           0
     33829 TIP3     5498     TIP3     H2       HT       0.417000       1.00800           0
     33830 TIP3     5499     TIP3     OH2      OT      -0.834000       15.9994           0
     33831 TIP3     5499     TIP3     H1       HT       0.417000       1.00800           0
     33832 TIP3     5499     TIP3     H2       HT       0.417000       1.00800           0
     33833 TIP3     5500     TIP3     OH2      OT      -0.834000       15.9994           0
     33834 TIP3     5500     TIP3     H1       HT       0.417000       1.00800           0
     33835 TIP3     5500     TIP3     H2       HT       0.417000       1.00800           0
     33836 TIP3     5501     TIP3     OH2      OT      -0.834000       15.9994           0
     33837 TIP3     5501     TIP3     H1       HT       0.417000       1.00800           0
     33838 TIP3     5501     TIP3     H2       HT       0.417000       1.00800           0
     33839 TIP3     5502     TIP3     OH2      OT      -0.834000       15.9994           0
     33840 TIP3     5502     TIP3     H1       HT       0.417000       1.00800           0
     33841 TIP3     5502     TIP3     H2       HT       0.417000       1.00800           0
     33842 TIP3     5503     TIP3     OH2      OT      -0.834000       15.9994           0
     33843 TIP3     5503     TIP3     H1       HT       0.417000       1.00800           0
     33844 TIP3     5503     TIP3     H2       HT       0.417000       1.00800           0
     33845 TIP3     5504     TIP3     OH2      OT      -0.834000       15.9994           0
     33846 TIP3     5504     TIP3     H1       HT       0.417000       1.00800           0
     33847 TIP3     5504     TIP3     H2       HT       0.417000       1.00800           0
     33848 TIP3     5505     TIP3     OH2      OT      -0.834000       15.9994           0
     33849 TIP3     5505     TIP3     H1       HT       0.417000       1.00800           0
     33850 TIP3     5505     TIP3     H2       HT       0.417000       1.00800           0
     33851 TIP3     5506     TIP3     OH2      OT      -0.834000       15.9994           0
     33852 TIP3     5506     TIP3     H1       HT       0.417000       1.00800           0
     33853 TIP3     5506     TIP3     H2       HT       0.417000       1.00800           0
     33854 TIP3     5507     TIP3     OH2      OT      -0.834000       15.9994           0
     33855 TIP3     5507     TIP3     H1       HT       0.417000       1.00800           0
     33856 TIP3     5507     TIP3     H2       HT       0.417000       1.00800           0
     33857 TIP3     5508     TIP3     OH2      OT      -0.834000       15.9994           0
     33858 TIP3     5508     TIP3     H1       HT       0.417000       1.00800           0
     33859 TIP3     5508     TIP3     H2       HT       0.417000       1.00800           0
     33860 TIP3     5509     TIP3     OH2      OT      -0.834000       15.9994           0
     33861 TIP3     5509     TIP3     H1       HT       0.417000       1.00800           0
     33862 TIP3     5509     TIP3     H2       HT       0.417000       1.00800           0
     33863 TIP3     5510     TIP3     OH2      OT      -0.834000       15.9994           0
     33864 TIP3     5510     TIP3     H1       HT       0.417000       1.00800           0
     33865 TIP3     5510     TIP3     H2       HT       0.417000       1.00800           0
     33866 TIP3     5511     TIP3     OH2      OT      -0.834000       15.9994           0
     33867 TIP3     5511     TIP3     H1       HT       0.417000       1.00800           0
     33868 TIP3     5511     TIP3     H2       HT       0.417000       1.00800           0
     33869 TIP3     5512     TIP3     OH2      OT      -0.834000       15.9994           0
     33870 TIP3     5512     TIP3     H1       HT       0.417000       1.00800           0
     33871 TIP3     5512     TIP3     H2       HT       0.417000       1.00800           0
     33872 TIP3     5513     TIP3     OH2      OT      -0.834000       15.9994           0
     33873 TIP3     5513     TIP3     H1       HT       0.417000       1.00800           0
     33874 TIP3     5513     TIP3     H2       HT       0.417000       1.00800           0
     33875 TIP3     5514     TIP3     OH2      OT      -0.834000       15.9994           0
     33876 TIP3     5514     TIP3     H1       HT       0.417000       1.00800           0
     33877 TIP3     5514     TIP3     H2       HT       0.417000       1.00800           0
     33878 TIP3     5515     TIP3     OH2      OT      -0.834000       15.9994           0
     33879 TIP3     5515     TIP3     H1       HT       0.417000       1.00800           0
     33880 TIP3     5515     TIP3     H2       HT       0.417000       1.00800           0
     33881 TIP3     5516     TIP3     OH2      OT      -0.834000       15.9994           0
     33882 TIP3     5516     TIP3     H1       HT       0.417000       1.00800           0
     33883 TIP3     5516     TIP3     H2       HT       0.417000       1.00800           0
     33884 TIP3     5517     TIP3     OH2      OT      -0.834000       15.9994           0
     33885 TIP3     5517     TIP3     H1       HT       0.417000       1.00800           0
     33886 TIP3     5517     TIP3     H2       HT       0.417000       1.00800           0
     33887 TIP3     5518     TIP3     OH2      OT      -0.834000       15.9994           0
     33888 TIP3     5518     TIP3     H1       HT       0.417000       1.00800           0
     33889 TIP3     5518     TIP3     H2       HT       0.417000       1.00800           0
     33890 TIP3     5519     TIP3     OH2      OT      -0.834000       15.9994           0
     33891 TIP3     5519     TIP3     H1       HT       0.417000       1.00800           0
     33892 TIP3     5519     TIP3     H2       HT       0.417000       1.00800           0
     33893 TIP3     5520     TIP3     OH2      OT      -0.834000       15.9994           0
     33894 TIP3     5520     TIP3     H1       HT       0.417000       1.00800           0
     33895 TIP3     5520     TIP3     H2       HT       0.417000       1.00800           0
     33896 TIP3     5521     TIP3     OH2      OT      -0.834000       15.9994           0
     33897 TIP3     5521     TIP3     H1       HT       0.417000       1.00800           0
     33898 TIP3     5521     TIP3     H2       HT       0.417000       1.00800           0
     33899 TIP3     5522     TIP3     OH2      OT      -0.834000       15.9994           0
     33900 TIP3     5522     TIP3     H1       HT       0.417000       1.00800           0
     33901 TIP3     5522     TIP3     H2       HT       0.417000       1.00800           0
     33902 TIP3     5523     TIP3     OH2      OT      -0.834000       15.9994           0
     33903 TIP3     5523     TIP3     H1       HT       0.417000       1.00800           0
     33904 TIP3     5523     TIP3     H2       HT       0.417000       1.00800           0
     33905 TIP3     5524     TIP3     OH2      OT      -0.834000       15.9994           0
     33906 TIP3     5524     TIP3     H1       HT       0.417000       1.00800           0
     33907 TIP3     5524     TIP3     H2       HT       0.417000       1.00800           0
     33908 TIP3     5525     TIP3     OH2      OT      -0.834000       15.9994           0
     33909 TIP3     5525     TIP3     H1       HT       0.417000       1.00800           0
     33910 TIP3     5525     TIP3     H2       HT       0.417000       1.00800           0
     33911 TIP3     5526     TIP3     OH2      OT      -0.834000       15.9994           0
     33912 TIP3     5526     TIP3     H1       HT       0.417000       1.00800           0
     33913 TIP3     5526     TIP3     H2       HT       0.417000       1.00800           0
     33914 TIP3     5527     TIP3     OH2      OT      -0.834000       15.9994           0
     33915 TIP3     5527     TIP3     H1       HT       0.417000       1.00800           0
     33916 TIP3     5527     TIP3     H2       HT       0.417000       1.00800           0
     33917 TIP3     5528     TIP3     OH2      OT      -0.834000       15.9994           0
     33918 TIP3     5528     TIP3     H1       HT       0.417000       1.00800           0
     33919 TIP3     5528     TIP3     H2       HT       0.417000       1.00800           0
     33920 TIP3     5529     TIP3     OH2      OT      -0.834000       15.9994           0
     33921 TIP3     5529     TIP3     H1       HT       0.417000       1.00800           0
     33922 TIP3     5529     TIP3     H2       HT       0.417000       1.00800           0
     33923 TIP3     5530     TIP3     OH2      OT      -0.834000       15.9994           0
     33924 TIP3     5530     TIP3     H1       HT       0.417000       1.00800           0
     33925 TIP3     5530     TIP3     H2       HT       0.417000       1.00800           0
     33926 TIP3     5531     TIP3     OH2      OT      -0.834000       15.9994           0
     33927 TIP3     5531     TIP3     H1       HT       0.417000       1.00800           0
     33928 TIP3     5531     TIP3     H2       HT       0.417000       1.00800           0
     33929 TIP3     5532     TIP3     OH2      OT      -0.834000       15.9994           0
     33930 TIP3     5532     TIP3     H1       HT       0.417000       1.00800           0
     33931 TIP3     5532     TIP3     H2       HT       0.417000       1.00800           0
     33932 TIP3     5533     TIP3     OH2      OT      -0.834000       15.9994           0
     33933 TIP3     5533     TIP3     H1       HT       0.417000       1.00800           0
     33934 TIP3     5533     TIP3     H2       HT       0.417000       1.00800           0
     33935 TIP3     5534     TIP3     OH2      OT      -0.834000       15.9994           0
     33936 TIP3     5534     TIP3     H1       HT       0.417000       1.00800           0
     33937 TIP3     5534     TIP3     H2       HT       0.417000       1.00800           0
     33938 TIP3     5535     TIP3     OH2      OT      -0.834000       15.9994           0
     33939 TIP3     5535     TIP3     H1       HT       0.417000       1.00800           0
     33940 TIP3     5535     TIP3     H2       HT       0.417000       1.00800           0
     33941 TIP3     5536     TIP3     OH2      OT      -0.834000       15.9994           0
     33942 TIP3     5536     TIP3     H1       HT       0.417000       1.00800           0
     33943 TIP3     5536     TIP3     H2       HT       0.417000       1.00800           0
     33944 TIP3     5537     TIP3     OH2      OT      -0.834000       15.9994           0
     33945 TIP3     5537     TIP3     H1       HT       0.417000       1.00800           0
     33946 TIP3     5537     TIP3     H2       HT       0.417000       1.00800           0
     33947 TIP3     5538     TIP3     OH2      OT      -0.834000       15.9994           0
     33948 TIP3     5538     TIP3     H1       HT       0.417000       1.00800           0
     33949 TIP3     5538     TIP3     H2       HT       0.417000       1.00800           0
     33950 TIP3     5539     TIP3     OH2      OT      -0.834000       15.9994           0
     33951 TIP3     5539     TIP3     H1       HT       0.417000       1.00800           0
     33952 TIP3     5539     TIP3     H2       HT       0.417000       1.00800           0
     33953 TIP3     5540     TIP3     OH2      OT      -0.834000       15.9994           0
     33954 TIP3     5540     TIP3     H1       HT       0.417000       1.00800           0
     33955 TIP3     5540     TIP3     H2       HT       0.417000       1.00800           0
     33956 TIP3     5541     TIP3     OH2      OT      -0.834000       15.9994           0
     33957 TIP3     5541     TIP3     H1       HT       0.417000       1.00800           0
     33958 TIP3     5541     TIP3     H2       HT       0.417000       1.00800           0
     33959 TIP3     5542     TIP3     OH2      OT      -0.834000       15.9994           0
     33960 TIP3     5542     TIP3     H1       HT       0.417000       1.00800           0
     33961 TIP3     5542     TIP3     H2       HT       0.417000       1.00800           0
     33962 TIP3     5543     TIP3     OH2      OT      -0.834000       15.9994           0
     33963 TIP3     5543     TIP3     H1       HT       0.417000       1.00800           0
     33964 TIP3     5543     TIP3     H2       HT       0.417000       1.00800           0
     33965 TIP3     5544     TIP3     OH2      OT      -0.834000       15.9994           0
     33966 TIP3     5544     TIP3     H1       HT       0.417000       1.00800           0
     33967 TIP3     5544     TIP3     H2       HT       0.417000       1.00800           0
     33968 TIP3     5545     TIP3     OH2      OT      -0.834000       15.9994           0
     33969 TIP3     5545     TIP3     H1       HT       0.417000       1.00800           0
     33970 TIP3     5545     TIP3     H2       HT       0.417000       1.00800           0
     33971 TIP3     5546     TIP3     OH2      OT      -0.834000       15.9994           0
     33972 TIP3     5546     TIP3     H1       HT       0.417000       1.00800           0
     33973 TIP3     5546     TIP3     H2       HT       0.417000       1.00800           0
     33974 TIP3     5547     TIP3     OH2      OT      -0.834000       15.9994           0
     33975 TIP3     5547     TIP3     H1       HT       0.417000       1.00800           0
     33976 TIP3     5547     TIP3     H2       HT       0.417000       1.00800           0
     33977 TIP3     5548     TIP3     OH2      OT      -0.834000       15.9994           0
     33978 TIP3     5548     TIP3     H1       HT       0.417000       1.00800           0
     33979 TIP3     5548     TIP3     H2       HT       0.417000       1.00800           0
     33980 TIP3     5549     TIP3     OH2      OT      -0.834000       15.9994           0
     33981 TIP3     5549     TIP3     H1       HT       0.417000       1.00800           0
     33982 TIP3     5549     TIP3     H2       HT       0.417000       1.00800           0
     33983 TIP3     5550     TIP3     OH2      OT      -0.834000       15.9994           0
     33984 TIP3     5550     TIP3     H1       HT       0.417000       1.00800           0
     33985 TIP3     5550     TIP3     H2       HT       0.417000       1.00800           0
     33986 TIP3     5551     TIP3     OH2      OT      -0.834000       15.9994           0
     33987 TIP3     5551     TIP3     H1       HT       0.417000       1.00800           0
     33988 TIP3     5551     TIP3     H2       HT       0.417000       1.00800           0
     33989 TIP3     5552     TIP3     OH2      OT      -0.834000       15.9994           0
     33990 TIP3     5552     TIP3     H1       HT       0.417000       1.00800           0
     33991 TIP3     5552     TIP3     H2       HT       0.417000       1.00800           0
     33992 TIP3     5553     TIP3     OH2      OT      -0.834000       15.9994           0
     33993 TIP3     5553     TIP3     H1       HT       0.417000       1.00800           0
     33994 TIP3     5553     TIP3     H2       HT       0.417000       1.00800           0
     33995 TIP3     5554     TIP3     OH2      OT      -0.834000       15.9994           0
     33996 TIP3     5554     TIP3     H1       HT       0.417000       1.00800           0
     33997 TIP3     5554     TIP3     H2       HT       0.417000       1.00800           0
     33998 TIP3     5555     TIP3     OH2      OT      -0.834000       15.9994           0
     33999 TIP3     5555     TIP3     H1       HT       0.417000       1.00800           0
     34000 TIP3     5555     TIP3     H2       HT       0.417000       1.00800           0
     34001 TIP3     5556     TIP3     OH2      OT      -0.834000       15.9994           0
     34002 TIP3     5556     TIP3     H1       HT       0.417000       1.00800           0
     34003 TIP3     5556     TIP3     H2       HT       0.417000       1.00800           0
     34004 TIP3     5557     TIP3     OH2      OT      -0.834000       15.9994           0
     34005 TIP3     5557     TIP3     H1       HT       0.417000       1.00800           0
     34006 TIP3     5557     TIP3     H2       HT       0.417000       1.00800           0
     34007 TIP3     5558     TIP3     OH2      OT      -0.834000       15.9994           0
     34008 TIP3     5558     TIP3     H1       HT       0.417000       1.00800           0
     34009 TIP3     5558     TIP3     H2       HT       0.417000       1.00800           0
     34010 TIP3     5559     TIP3     OH2      OT      -0.834000       15.9994           0
     34011 TIP3     5559     TIP3     H1       HT       0.417000       1.00800           0
     34012 TIP3     5559     TIP3     H2       HT       0.417000       1.00800           0
     34013 TIP3     5560     TIP3     OH2      OT      -0.834000       15.9994           0
     34014 TIP3     5560     TIP3     H1       HT       0.417000       1.00800           0
     34015 TIP3     5560     TIP3     H2       HT       0.417000       1.00800           0
     34016 TIP3     5561     TIP3     OH2      OT      -0.834000       15.9994           0
     34017 TIP3     5561     TIP3     H1       HT       0.417000       1.00800           0
     34018 TIP3     5561     TIP3     H2       HT       0.417000       1.00800           0
     34019 TIP3     5562     TIP3     OH2      OT      -0.834000       15.9994           0
     34020 TIP3     5562     TIP3     H1       HT       0.417000       1.00800           0
     34021 TIP3     5562     TIP3     H2       HT       0.417000       1.00800           0
     34022 TIP3     5563     TIP3     OH2      OT      -0.834000       15.9994           0
     34023 TIP3     5563     TIP3     H1       HT       0.417000       1.00800           0
     34024 TIP3     5563     TIP3     H2       HT       0.417000       1.00800           0
     34025 TIP3     5564     TIP3     OH2      OT      -0.834000       15.9994           0
     34026 TIP3     5564     TIP3     H1       HT       0.417000       1.00800           0
     34027 TIP3     5564     TIP3     H2       HT       0.417000       1.00800           0
     34028 TIP3     5565     TIP3     OH2      OT      -0.834000       15.9994           0
     34029 TIP3     5565     TIP3     H1       HT       0.417000       1.00800           0
     34030 TIP3     5565     TIP3     H2       HT       0.417000       1.00800           0
     34031 TIP3     5566     TIP3     OH2      OT      -0.834000       15.9994           0
     34032 TIP3     5566     TIP3     H1       HT       0.417000       1.00800           0
     34033 TIP3     5566     TIP3     H2       HT       0.417000       1.00800           0
     34034 TIP3     5567     TIP3     OH2      OT      -0.834000       15.9994           0
     34035 TIP3     5567     TIP3     H1       HT       0.417000       1.00800           0
     34036 TIP3     5567     TIP3     H2       HT       0.417000       1.00800           0
     34037 TIP3     5568     TIP3     OH2      OT      -0.834000       15.9994           0
     34038 TIP3     5568     TIP3     H1       HT       0.417000       1.00800           0
     34039 TIP3     5568     TIP3     H2       HT       0.417000       1.00800           0
     34040 TIP3     5569     TIP3     OH2      OT      -0.834000       15.9994           0
     34041 TIP3     5569     TIP3     H1       HT       0.417000       1.00800           0
     34042 TIP3     5569     TIP3     H2       HT       0.417000       1.00800           0
     34043 TIP3     5570     TIP3     OH2      OT      -0.834000       15.9994           0
     34044 TIP3     5570     TIP3     H1       HT       0.417000       1.00800           0
     34045 TIP3     5570     TIP3     H2       HT       0.417000       1.00800           0
     34046 TIP3     5571     TIP3     OH2      OT      -0.834000       15.9994           0
     34047 TIP3     5571     TIP3     H1       HT       0.417000       1.00800           0
     34048 TIP3     5571     TIP3     H2       HT       0.417000       1.00800           0
     34049 TIP3     5572     TIP3     OH2      OT      -0.834000       15.9994           0
     34050 TIP3     5572     TIP3     H1       HT       0.417000       1.00800           0
     34051 TIP3     5572     TIP3     H2       HT       0.417000       1.00800           0
     34052 TIP3     5573     TIP3     OH2      OT      -0.834000       15.9994           0
     34053 TIP3     5573     TIP3     H1       HT       0.417000       1.00800           0
     34054 TIP3     5573     TIP3     H2       HT       0.417000       1.00800           0
     34055 TIP3     5574     TIP3     OH2      OT      -0.834000       15.9994           0
     34056 TIP3     5574     TIP3     H1       HT       0.417000       1.00800           0
     34057 TIP3     5574     TIP3     H2       HT       0.417000       1.00800           0
     34058 TIP3     5575     TIP3     OH2      OT      -0.834000       15.9994           0
     34059 TIP3     5575     TIP3     H1       HT       0.417000       1.00800           0
     34060 TIP3     5575     TIP3     H2       HT       0.417000       1.00800           0
     34061 TIP3     5576     TIP3     OH2      OT      -0.834000       15.9994           0
     34062 TIP3     5576     TIP3     H1       HT       0.417000       1.00800           0
     34063 TIP3     5576     TIP3     H2       HT       0.417000       1.00800           0
     34064 TIP3     5577     TIP3     OH2      OT      -0.834000       15.9994           0
     34065 TIP3     5577     TIP3     H1       HT       0.417000       1.00800           0
     34066 TIP3     5577     TIP3     H2       HT       0.417000       1.00800           0
     34067 TIP3     5578     TIP3     OH2      OT      -0.834000       15.9994           0
     34068 TIP3     5578     TIP3     H1       HT       0.417000       1.00800           0
     34069 TIP3     5578     TIP3     H2       HT       0.417000       1.00800           0
     34070 TIP3     5579     TIP3     OH2      OT      -0.834000       15.9994           0
     34071 TIP3     5579     TIP3     H1       HT       0.417000       1.00800           0
     34072 TIP3     5579     TIP3     H2       HT       0.417000       1.00800           0
     34073 TIP3     5580     TIP3     OH2      OT      -0.834000       15.9994           0
     34074 TIP3     5580     TIP3     H1       HT       0.417000       1.00800           0
     34075 TIP3     5580     TIP3     H2       HT       0.417000       1.00800           0
     34076 TIP3     5581     TIP3     OH2      OT      -0.834000       15.9994           0
     34077 TIP3     5581     TIP3     H1       HT       0.417000       1.00800           0
     34078 TIP3     5581     TIP3     H2       HT       0.417000       1.00800           0
     34079 TIP3     5582     TIP3     OH2      OT      -0.834000       15.9994           0
     34080 TIP3     5582     TIP3     H1       HT       0.417000       1.00800           0
     34081 TIP3     5582     TIP3     H2       HT       0.417000       1.00800           0
     34082 TIP3     5583     TIP3     OH2      OT      -0.834000       15.9994           0
     34083 TIP3     5583     TIP3     H1       HT       0.417000       1.00800           0
     34084 TIP3     5583     TIP3     H2       HT       0.417000       1.00800           0
     34085 TIP3     5584     TIP3     OH2      OT      -0.834000       15.9994           0
     34086 TIP3     5584     TIP3     H1       HT       0.417000       1.00800           0
     34087 TIP3     5584     TIP3     H2       HT       0.417000       1.00800           0
     34088 TIP3     5585     TIP3     OH2      OT      -0.834000       15.9994           0
     34089 TIP3     5585     TIP3     H1       HT       0.417000       1.00800           0
     34090 TIP3     5585     TIP3     H2       HT       0.417000       1.00800           0
     34091 TIP3     5586     TIP3     OH2      OT      -0.834000       15.9994           0
     34092 TIP3     5586     TIP3     H1       HT       0.417000       1.00800           0
     34093 TIP3     5586     TIP3     H2       HT       0.417000       1.00800           0
     34094 TIP3     5587     TIP3     OH2      OT      -0.834000       15.9994           0
     34095 TIP3     5587     TIP3     H1       HT       0.417000       1.00800           0
     34096 TIP3     5587     TIP3     H2       HT       0.417000       1.00800           0
     34097 TIP3     5588     TIP3     OH2      OT      -0.834000       15.9994           0
     34098 TIP3     5588     TIP3     H1       HT       0.417000       1.00800           0
     34099 TIP3     5588     TIP3     H2       HT       0.417000       1.00800           0
     34100 TIP3     5589     TIP3     OH2      OT      -0.834000       15.9994           0
     34101 TIP3     5589     TIP3     H1       HT       0.417000       1.00800           0
     34102 TIP3     5589     TIP3     H2       HT       0.417000       1.00800           0
     34103 TIP3     5590     TIP3     OH2      OT      -0.834000       15.9994           0
     34104 TIP3     5590     TIP3     H1       HT       0.417000       1.00800           0
     34105 TIP3     5590     TIP3     H2       HT       0.417000       1.00800           0
     34106 TIP3     5591     TIP3     OH2      OT      -0.834000       15.9994           0
     34107 TIP3     5591     TIP3     H1       HT       0.417000       1.00800           0
     34108 TIP3     5591     TIP3     H2       HT       0.417000       1.00800           0
     34109 TIP3     5592     TIP3     OH2      OT      -0.834000       15.9994           0
     34110 TIP3     5592     TIP3     H1       HT       0.417000       1.00800           0
     34111 TIP3     5592     TIP3     H2       HT       0.417000       1.00800           0
     34112 TIP3     5593     TIP3     OH2      OT      -0.834000       15.9994           0
     34113 TIP3     5593     TIP3     H1       HT       0.417000       1.00800           0
     34114 TIP3     5593     TIP3     H2       HT       0.417000       1.00800           0
     34115 TIP3     5594     TIP3     OH2      OT      -0.834000       15.9994           0
     34116 TIP3     5594     TIP3     H1       HT       0.417000       1.00800           0
     34117 TIP3     5594     TIP3     H2       HT       0.417000       1.00800           0
     34118 TIP3     5595     TIP3     OH2      OT      -0.834000       15.9994           0
     34119 TIP3     5595     TIP3     H1       HT       0.417000       1.00800           0
     34120 TIP3     5595     TIP3     H2       HT       0.417000       1.00800           0
     34121 TIP3     5596     TIP3     OH2      OT      -0.834000       15.9994           0
     34122 TIP3     5596     TIP3     H1       HT       0.417000       1.00800           0
     34123 TIP3     5596     TIP3     H2       HT       0.417000       1.00800           0
     34124 TIP3     5597     TIP3     OH2      OT      -0.834000       15.9994           0
     34125 TIP3     5597     TIP3     H1       HT       0.417000       1.00800           0
     34126 TIP3     5597     TIP3     H2       HT       0.417000       1.00800           0
     34127 TIP3     5598     TIP3     OH2      OT      -0.834000       15.9994           0
     34128 TIP3     5598     TIP3     H1       HT       0.417000       1.00800           0
     34129 TIP3     5598     TIP3     H2       HT       0.417000       1.00800           0
     34130 TIP3     5599     TIP3     OH2      OT      -0.834000       15.9994           0
     34131 TIP3     5599     TIP3     H1       HT       0.417000       1.00800           0
     34132 TIP3     5599     TIP3     H2       HT       0.417000       1.00800           0
     34133 TIP3     5600     TIP3     OH2      OT      -0.834000       15.9994           0
     34134 TIP3     5600     TIP3     H1       HT       0.417000       1.00800           0
     34135 TIP3     5600     TIP3     H2       HT       0.417000       1.00800           0
     34136 TIP3     5601     TIP3     OH2      OT      -0.834000       15.9994           0
     34137 TIP3     5601     TIP3     H1       HT       0.417000       1.00800           0
     34138 TIP3     5601     TIP3     H2       HT       0.417000       1.00800           0
     34139 TIP3     5602     TIP3     OH2      OT      -0.834000       15.9994           0
     34140 TIP3     5602     TIP3     H1       HT       0.417000       1.00800           0
     34141 TIP3     5602     TIP3     H2       HT       0.417000       1.00800           0
     34142 TIP3     5603     TIP3     OH2      OT      -0.834000       15.9994           0
     34143 TIP3     5603     TIP3     H1       HT       0.417000       1.00800           0
     34144 TIP3     5603     TIP3     H2       HT       0.417000       1.00800           0
     34145 TIP3     5604     TIP3     OH2      OT      -0.834000       15.9994           0
     34146 TIP3     5604     TIP3     H1       HT       0.417000       1.00800           0
     34147 TIP3     5604     TIP3     H2       HT       0.417000       1.00800           0
     34148 TIP3     5605     TIP3     OH2      OT      -0.834000       15.9994           0
     34149 TIP3     5605     TIP3     H1       HT       0.417000       1.00800           0
     34150 TIP3     5605     TIP3     H2       HT       0.417000       1.00800           0
     34151 TIP3     5606     TIP3     OH2      OT      -0.834000       15.9994           0
     34152 TIP3     5606     TIP3     H1       HT       0.417000       1.00800           0
     34153 TIP3     5606     TIP3     H2       HT       0.417000       1.00800           0
     34154 TIP3     5607     TIP3     OH2      OT      -0.834000       15.9994           0
     34155 TIP3     5607     TIP3     H1       HT       0.417000       1.00800           0
     34156 TIP3     5607     TIP3     H2       HT       0.417000       1.00800           0
     34157 TIP3     5608     TIP3     OH2      OT      -0.834000       15.9994           0
     34158 TIP3     5608     TIP3     H1       HT       0.417000       1.00800           0
     34159 TIP3     5608     TIP3     H2       HT       0.417000       1.00800           0
     34160 TIP3     5609     TIP3     OH2      OT      -0.834000       15.9994           0
     34161 TIP3     5609     TIP3     H1       HT       0.417000       1.00800           0
     34162 TIP3     5609     TIP3     H2       HT       0.417000       1.00800           0
     34163 TIP3     5610     TIP3     OH2      OT      -0.834000       15.9994           0
     34164 TIP3     5610     TIP3     H1       HT       0.417000       1.00800           0
     34165 TIP3     5610     TIP3     H2       HT       0.417000       1.00800           0
     34166 TIP3     5611     TIP3     OH2      OT      -0.834000       15.9994           0
     34167 TIP3     5611     TIP3     H1       HT       0.417000       1.00800           0
     34168 TIP3     5611     TIP3     H2       HT       0.417000       1.00800           0
     34169 TIP3     5612     TIP3     OH2      OT      -0.834000       15.9994           0
     34170 TIP3     5612     TIP3     H1       HT       0.417000       1.00800           0
     34171 TIP3     5612     TIP3     H2       HT       0.417000       1.00800           0
     34172 TIP3     5613     TIP3     OH2      OT      -0.834000       15.9994           0
     34173 TIP3     5613     TIP3     H1       HT       0.417000       1.00800           0
     34174 TIP3     5613     TIP3     H2       HT       0.417000       1.00800           0
     34175 TIP3     5614     TIP3     OH2      OT      -0.834000       15.9994           0
     34176 TIP3     5614     TIP3     H1       HT       0.417000       1.00800           0
     34177 TIP3     5614     TIP3     H2       HT       0.417000       1.00800           0
     34178 TIP3     5615     TIP3     OH2      OT      -0.834000       15.9994           0
     34179 TIP3     5615     TIP3     H1       HT       0.417000       1.00800           0
     34180 TIP3     5615     TIP3     H2       HT       0.417000       1.00800           0
     34181 TIP3     5616     TIP3     OH2      OT      -0.834000       15.9994           0
     34182 TIP3     5616     TIP3     H1       HT       0.417000       1.00800           0
     34183 TIP3     5616     TIP3     H2       HT       0.417000       1.00800           0
     34184 TIP3     5617     TIP3     OH2      OT      -0.834000       15.9994           0
     34185 TIP3     5617     TIP3     H1       HT       0.417000       1.00800           0
     34186 TIP3     5617     TIP3     H2       HT       0.417000       1.00800           0
     34187 TIP3     5618     TIP3     OH2      OT      -0.834000       15.9994           0
     34188 TIP3     5618     TIP3     H1       HT       0.417000       1.00800           0
     34189 TIP3     5618     TIP3     H2       HT       0.417000       1.00800           0
     34190 TIP3     5619     TIP3     OH2      OT      -0.834000       15.9994           0
     34191 TIP3     5619     TIP3     H1       HT       0.417000       1.00800           0
     34192 TIP3     5619     TIP3     H2       HT       0.417000       1.00800           0
     34193 TIP3     5620     TIP3     OH2      OT      -0.834000       15.9994           0
     34194 TIP3     5620     TIP3     H1       HT       0.417000       1.00800           0
     34195 TIP3     5620     TIP3     H2       HT       0.417000       1.00800           0
     34196 TIP3     5621     TIP3     OH2      OT      -0.834000       15.9994           0
     34197 TIP3     5621     TIP3     H1       HT       0.417000       1.00800           0
     34198 TIP3     5621     TIP3     H2       HT       0.417000       1.00800           0
     34199 TIP3     5622     TIP3     OH2      OT      -0.834000       15.9994           0
     34200 TIP3     5622     TIP3     H1       HT       0.417000       1.00800           0
     34201 TIP3     5622     TIP3     H2       HT       0.417000       1.00800           0
     34202 TIP3     5623     TIP3     OH2      OT      -0.834000       15.9994           0
     34203 TIP3     5623     TIP3     H1       HT       0.417000       1.00800           0
     34204 TIP3     5623     TIP3     H2       HT       0.417000       1.00800           0
     34205 TIP3     5624     TIP3     OH2      OT      -0.834000       15.9994           0
     34206 TIP3     5624     TIP3     H1       HT       0.417000       1.00800           0
     34207 TIP3     5624     TIP3     H2       HT       0.417000       1.00800           0
     34208 TIP3     5625     TIP3     OH2      OT      -0.834000       15.9994           0
     34209 TIP3     5625     TIP3     H1       HT       0.417000       1.00800           0
     34210 TIP3     5625     TIP3     H2       HT       0.417000       1.00800           0
     34211 TIP3     5626     TIP3     OH2      OT      -0.834000       15.9994           0
     34212 TIP3     5626     TIP3     H1       HT       0.417000       1.00800           0
     34213 TIP3     5626     TIP3     H2       HT       0.417000       1.00800           0
     34214 TIP3     5627     TIP3     OH2      OT      -0.834000       15.9994           0
     34215 TIP3     5627     TIP3     H1       HT       0.417000       1.00800           0
     34216 TIP3     5627     TIP3     H2       HT       0.417000       1.00800           0
     34217 TIP3     5628     TIP3     OH2      OT      -0.834000       15.9994           0
     34218 TIP3     5628     TIP3     H1       HT       0.417000       1.00800           0
     34219 TIP3     5628     TIP3     H2       HT       0.417000       1.00800           0
     34220 TIP3     5629     TIP3     OH2      OT      -0.834000       15.9994           0
     34221 TIP3     5629     TIP3     H1       HT       0.417000       1.00800           0
     34222 TIP3     5629     TIP3     H2       HT       0.417000       1.00800           0
     34223 TIP3     5630     TIP3     OH2      OT      -0.834000       15.9994           0
     34224 TIP3     5630     TIP3     H1       HT       0.417000       1.00800           0
     34225 TIP3     5630     TIP3     H2       HT       0.417000       1.00800           0
     34226 TIP3     5631     TIP3     OH2      OT      -0.834000       15.9994           0
     34227 TIP3     5631     TIP3     H1       HT       0.417000       1.00800           0
     34228 TIP3     5631     TIP3     H2       HT       0.417000       1.00800           0
     34229 TIP3     5632     TIP3     OH2      OT      -0.834000       15.9994           0
     34230 TIP3     5632     TIP3     H1       HT       0.417000       1.00800           0
     34231 TIP3     5632     TIP3     H2       HT       0.417000       1.00800           0
     34232 TIP3     5633     TIP3     OH2      OT      -0.834000       15.9994           0
     34233 TIP3     5633     TIP3     H1       HT       0.417000       1.00800           0
     34234 TIP3     5633     TIP3     H2       HT       0.417000       1.00800           0
     34235 TIP3     5634     TIP3     OH2      OT      -0.834000       15.9994           0
     34236 TIP3     5634     TIP3     H1       HT       0.417000       1.00800           0
     34237 TIP3     5634     TIP3     H2       HT       0.417000       1.00800           0
     34238 TIP3     5635     TIP3     OH2      OT      -0.834000       15.9994           0
     34239 TIP3     5635     TIP3     H1       HT       0.417000       1.00800           0
     34240 TIP3     5635     TIP3     H2       HT       0.417000       1.00800           0
     34241 TIP3     5636     TIP3     OH2      OT      -0.834000       15.9994           0
     34242 TIP3     5636     TIP3     H1       HT       0.417000       1.00800           0
     34243 TIP3     5636     TIP3     H2       HT       0.417000       1.00800           0
     34244 TIP3     5637     TIP3     OH2      OT      -0.834000       15.9994           0
     34245 TIP3     5637     TIP3     H1       HT       0.417000       1.00800           0
     34246 TIP3     5637     TIP3     H2       HT       0.417000       1.00800           0
     34247 TIP3     5638     TIP3     OH2      OT      -0.834000       15.9994           0
     34248 TIP3     5638     TIP3     H1       HT       0.417000       1.00800           0
     34249 TIP3     5638     TIP3     H2       HT       0.417000       1.00800           0
     34250 TIP3     5639     TIP3     OH2      OT      -0.834000       15.9994           0
     34251 TIP3     5639     TIP3     H1       HT       0.417000       1.00800           0
     34252 TIP3     5639     TIP3     H2       HT       0.417000       1.00800           0
     34253 TIP3     5640     TIP3     OH2      OT      -0.834000       15.9994           0
     34254 TIP3     5640     TIP3     H1       HT       0.417000       1.00800           0
     34255 TIP3     5640     TIP3     H2       HT       0.417000       1.00800           0
     34256 TIP3     5641     TIP3     OH2      OT      -0.834000       15.9994           0
     34257 TIP3     5641     TIP3     H1       HT       0.417000       1.00800           0
     34258 TIP3     5641     TIP3     H2       HT       0.417000       1.00800           0
     34259 TIP3     5642     TIP3     OH2      OT      -0.834000       15.9994           0
     34260 TIP3     5642     TIP3     H1       HT       0.417000       1.00800           0
     34261 TIP3     5642     TIP3     H2       HT       0.417000       1.00800           0
     34262 TIP3     5643     TIP3     OH2      OT      -0.834000       15.9994           0
     34263 TIP3     5643     TIP3     H1       HT       0.417000       1.00800           0
     34264 TIP3     5643     TIP3     H2       HT       0.417000       1.00800           0
     34265 TIP3     5644     TIP3     OH2      OT      -0.834000       15.9994           0
     34266 TIP3     5644     TIP3     H1       HT       0.417000       1.00800           0
     34267 TIP3     5644     TIP3     H2       HT       0.417000       1.00800           0
     34268 TIP3     5645     TIP3     OH2      OT      -0.834000       15.9994           0
     34269 TIP3     5645     TIP3     H1       HT       0.417000       1.00800           0
     34270 TIP3     5645     TIP3     H2       HT       0.417000       1.00800           0
     34271 TIP3     5646     TIP3     OH2      OT      -0.834000       15.9994           0
     34272 TIP3     5646     TIP3     H1       HT       0.417000       1.00800           0
     34273 TIP3     5646     TIP3     H2       HT       0.417000       1.00800           0
     34274 TIP3     5647     TIP3     OH2      OT      -0.834000       15.9994           0
     34275 TIP3     5647     TIP3     H1       HT       0.417000       1.00800           0
     34276 TIP3     5647     TIP3     H2       HT       0.417000       1.00800           0
     34277 TIP3     5648     TIP3     OH2      OT      -0.834000       15.9994           0
     34278 TIP3     5648     TIP3     H1       HT       0.417000       1.00800           0
     34279 TIP3     5648     TIP3     H2       HT       0.417000       1.00800           0
     34280 TIP3     5649     TIP3     OH2      OT      -0.834000       15.9994           0
     34281 TIP3     5649     TIP3     H1       HT       0.417000       1.00800           0
     34282 TIP3     5649     TIP3     H2       HT       0.417000       1.00800           0
     34283 TIP3     5650     TIP3     OH2      OT      -0.834000       15.9994           0
     34284 TIP3     5650     TIP3     H1       HT       0.417000       1.00800           0
     34285 TIP3     5650     TIP3     H2       HT       0.417000       1.00800           0
     34286 TIP3     5651     TIP3     OH2      OT      -0.834000       15.9994           0
     34287 TIP3     5651     TIP3     H1       HT       0.417000       1.00800           0
     34288 TIP3     5651     TIP3     H2       HT       0.417000       1.00800           0
     34289 TIP3     5652     TIP3     OH2      OT      -0.834000       15.9994           0
     34290 TIP3     5652     TIP3     H1       HT       0.417000       1.00800           0
     34291 TIP3     5652     TIP3     H2       HT       0.417000       1.00800           0
     34292 TIP3     5653     TIP3     OH2      OT      -0.834000       15.9994           0
     34293 TIP3     5653     TIP3     H1       HT       0.417000       1.00800           0
     34294 TIP3     5653     TIP3     H2       HT       0.417000       1.00800           0
     34295 TIP3     5654     TIP3     OH2      OT      -0.834000       15.9994           0
     34296 TIP3     5654     TIP3     H1       HT       0.417000       1.00800           0
     34297 TIP3     5654     TIP3     H2       HT       0.417000       1.00800           0
     34298 TIP3     5655     TIP3     OH2      OT      -0.834000       15.9994           0
     34299 TIP3     5655     TIP3     H1       HT       0.417000       1.00800           0
     34300 TIP3     5655     TIP3     H2       HT       0.417000       1.00800           0
     34301 TIP3     5656     TIP3     OH2      OT      -0.834000       15.9994           0
     34302 TIP3     5656     TIP3     H1       HT       0.417000       1.00800           0
     34303 TIP3     5656     TIP3     H2       HT       0.417000       1.00800           0
     34304 TIP3     5657     TIP3     OH2      OT      -0.834000       15.9994           0
     34305 TIP3     5657     TIP3     H1       HT       0.417000       1.00800           0
     34306 TIP3     5657     TIP3     H2       HT       0.417000       1.00800           0
     34307 TIP3     5658     TIP3     OH2      OT      -0.834000       15.9994           0
     34308 TIP3     5658     TIP3     H1       HT       0.417000       1.00800           0
     34309 TIP3     5658     TIP3     H2       HT       0.417000       1.00800           0
     34310 TIP3     5659     TIP3     OH2      OT      -0.834000       15.9994           0
     34311 TIP3     5659     TIP3     H1       HT       0.417000       1.00800           0
     34312 TIP3     5659     TIP3     H2       HT       0.417000       1.00800           0
     34313 TIP3     5660     TIP3     OH2      OT      -0.834000       15.9994           0
     34314 TIP3     5660     TIP3     H1       HT       0.417000       1.00800           0
     34315 TIP3     5660     TIP3     H2       HT       0.417000       1.00800           0
     34316 TIP3     5661     TIP3     OH2      OT      -0.834000       15.9994           0
     34317 TIP3     5661     TIP3     H1       HT       0.417000       1.00800           0
     34318 TIP3     5661     TIP3     H2       HT       0.417000       1.00800           0
     34319 TIP3     5662     TIP3     OH2      OT      -0.834000       15.9994           0
     34320 TIP3     5662     TIP3     H1       HT       0.417000       1.00800           0
     34321 TIP3     5662     TIP3     H2       HT       0.417000       1.00800           0
     34322 TIP3     5663     TIP3     OH2      OT      -0.834000       15.9994           0
     34323 TIP3     5663     TIP3     H1       HT       0.417000       1.00800           0
     34324 TIP3     5663     TIP3     H2       HT       0.417000       1.00800           0
     34325 TIP3     5664     TIP3     OH2      OT      -0.834000       15.9994           0
     34326 TIP3     5664     TIP3     H1       HT       0.417000       1.00800           0
     34327 TIP3     5664     TIP3     H2       HT       0.417000       1.00800           0
     34328 TIP3     5665     TIP3     OH2      OT      -0.834000       15.9994           0
     34329 TIP3     5665     TIP3     H1       HT       0.417000       1.00800           0
     34330 TIP3     5665     TIP3     H2       HT       0.417000       1.00800           0
     34331 TIP3     5666     TIP3     OH2      OT      -0.834000       15.9994           0
     34332 TIP3     5666     TIP3     H1       HT       0.417000       1.00800           0
     34333 TIP3     5666     TIP3     H2       HT       0.417000       1.00800           0
     34334 TIP3     5667     TIP3     OH2      OT      -0.834000       15.9994           0
     34335 TIP3     5667     TIP3     H1       HT       0.417000       1.00800           0
     34336 TIP3     5667     TIP3     H2       HT       0.417000       1.00800           0
     34337 TIP3     5668     TIP3     OH2      OT      -0.834000       15.9994           0
     34338 TIP3     5668     TIP3     H1       HT       0.417000       1.00800           0
     34339 TIP3     5668     TIP3     H2       HT       0.417000       1.00800           0
     34340 TIP3     5669     TIP3     OH2      OT      -0.834000       15.9994           0
     34341 TIP3     5669     TIP3     H1       HT       0.417000       1.00800           0
     34342 TIP3     5669     TIP3     H2       HT       0.417000       1.00800           0
     34343 TIP3     5670     TIP3     OH2      OT      -0.834000       15.9994           0
     34344 TIP3     5670     TIP3     H1       HT       0.417000       1.00800           0
     34345 TIP3     5670     TIP3     H2       HT       0.417000       1.00800           0
     34346 TIP3     5671     TIP3     OH2      OT      -0.834000       15.9994           0
     34347 TIP3     5671     TIP3     H1       HT       0.417000       1.00800           0
     34348 TIP3     5671     TIP3     H2       HT       0.417000       1.00800           0
     34349 TIP3     5672     TIP3     OH2      OT      -0.834000       15.9994           0
     34350 TIP3     5672     TIP3     H1       HT       0.417000       1.00800           0
     34351 TIP3     5672     TIP3     H2       HT       0.417000       1.00800           0
     34352 TIP3     5673     TIP3     OH2      OT      -0.834000       15.9994           0
     34353 TIP3     5673     TIP3     H1       HT       0.417000       1.00800           0
     34354 TIP3     5673     TIP3     H2       HT       0.417000       1.00800           0
     34355 TIP3     5674     TIP3     OH2      OT      -0.834000       15.9994           0
     34356 TIP3     5674     TIP3     H1       HT       0.417000       1.00800           0
     34357 TIP3     5674     TIP3     H2       HT       0.417000       1.00800           0
     34358 TIP3     5675     TIP3     OH2      OT      -0.834000       15.9994           0
     34359 TIP3     5675     TIP3     H1       HT       0.417000       1.00800           0
     34360 TIP3     5675     TIP3     H2       HT       0.417000       1.00800           0
     34361 TIP3     5676     TIP3     OH2      OT      -0.834000       15.9994           0
     34362 TIP3     5676     TIP3     H1       HT       0.417000       1.00800           0
     34363 TIP3     5676     TIP3     H2       HT       0.417000       1.00800           0
     34364 TIP3     5677     TIP3     OH2      OT      -0.834000       15.9994           0
     34365 TIP3     5677     TIP3     H1       HT       0.417000       1.00800           0
     34366 TIP3     5677     TIP3     H2       HT       0.417000       1.00800           0
     34367 TIP3     5678     TIP3     OH2      OT      -0.834000       15.9994           0
     34368 TIP3     5678     TIP3     H1       HT       0.417000       1.00800           0
     34369 TIP3     5678     TIP3     H2       HT       0.417000       1.00800           0
     34370 TIP3     5679     TIP3     OH2      OT      -0.834000       15.9994           0
     34371 TIP3     5679     TIP3     H1       HT       0.417000       1.00800           0
     34372 TIP3     5679     TIP3     H2       HT       0.417000       1.00800           0
     34373 TIP3     5680     TIP3     OH2      OT      -0.834000       15.9994           0
     34374 TIP3     5680     TIP3     H1       HT       0.417000       1.00800           0
     34375 TIP3     5680     TIP3     H2       HT       0.417000       1.00800           0
     34376 TIP3     5681     TIP3     OH2      OT      -0.834000       15.9994           0
     34377 TIP3     5681     TIP3     H1       HT       0.417000       1.00800           0
     34378 TIP3     5681     TIP3     H2       HT       0.417000       1.00800           0
     34379 TIP3     5682     TIP3     OH2      OT      -0.834000       15.9994           0
     34380 TIP3     5682     TIP3     H1       HT       0.417000       1.00800           0
     34381 TIP3     5682     TIP3     H2       HT       0.417000       1.00800           0
     34382 TIP3     5683     TIP3     OH2      OT      -0.834000       15.9994           0
     34383 TIP3     5683     TIP3     H1       HT       0.417000       1.00800           0
     34384 TIP3     5683     TIP3     H2       HT       0.417000       1.00800           0
     34385 TIP3     5684     TIP3     OH2      OT      -0.834000       15.9994           0
     34386 TIP3     5684     TIP3     H1       HT       0.417000       1.00800           0
     34387 TIP3     5684     TIP3     H2       HT       0.417000       1.00800           0
     34388 TIP3     5685     TIP3     OH2      OT      -0.834000       15.9994           0
     34389 TIP3     5685     TIP3     H1       HT       0.417000       1.00800           0
     34390 TIP3     5685     TIP3     H2       HT       0.417000       1.00800           0
     34391 TIP3     5686     TIP3     OH2      OT      -0.834000       15.9994           0
     34392 TIP3     5686     TIP3     H1       HT       0.417000       1.00800           0
     34393 TIP3     5686     TIP3     H2       HT       0.417000       1.00800           0
     34394 TIP3     5687     TIP3     OH2      OT      -0.834000       15.9994           0
     34395 TIP3     5687     TIP3     H1       HT       0.417000       1.00800           0
     34396 TIP3     5687     TIP3     H2       HT       0.417000       1.00800           0
     34397 TIP3     5688     TIP3     OH2      OT      -0.834000       15.9994           0
     34398 TIP3     5688     TIP3     H1       HT       0.417000       1.00800           0
     34399 TIP3     5688     TIP3     H2       HT       0.417000       1.00800           0
     34400 TIP3     5689     TIP3     OH2      OT      -0.834000       15.9994           0
     34401 TIP3     5689     TIP3     H1       HT       0.417000       1.00800           0
     34402 TIP3     5689     TIP3     H2       HT       0.417000       1.00800           0
     34403 TIP3     5690     TIP3     OH2      OT      -0.834000       15.9994           0
     34404 TIP3     5690     TIP3     H1       HT       0.417000       1.00800           0
     34405 TIP3     5690     TIP3     H2       HT       0.417000       1.00800           0
     34406 TIP3     5691     TIP3     OH2      OT      -0.834000       15.9994           0
     34407 TIP3     5691     TIP3     H1       HT       0.417000       1.00800           0
     34408 TIP3     5691     TIP3     H2       HT       0.417000       1.00800           0
     34409 TIP3     5692     TIP3     OH2      OT      -0.834000       15.9994           0
     34410 TIP3     5692     TIP3     H1       HT       0.417000       1.00800           0
     34411 TIP3     5692     TIP3     H2       HT       0.417000       1.00800           0
     34412 TIP3     5693     TIP3     OH2      OT      -0.834000       15.9994           0
     34413 TIP3     5693     TIP3     H1       HT       0.417000       1.00800           0
     34414 TIP3     5693     TIP3     H2       HT       0.417000       1.00800           0
     34415 TIP3     5694     TIP3     OH2      OT      -0.834000       15.9994           0
     34416 TIP3     5694     TIP3     H1       HT       0.417000       1.00800           0
     34417 TIP3     5694     TIP3     H2       HT       0.417000       1.00800           0
     34418 TIP3     5695     TIP3     OH2      OT      -0.834000       15.9994           0
     34419 TIP3     5695     TIP3     H1       HT       0.417000       1.00800           0
     34420 TIP3     5695     TIP3     H2       HT       0.417000       1.00800           0
     34421 TIP3     5696     TIP3     OH2      OT      -0.834000       15.9994           0
     34422 TIP3     5696     TIP3     H1       HT       0.417000       1.00800           0
     34423 TIP3     5696     TIP3     H2       HT       0.417000       1.00800           0
     34424 TIP3     5697     TIP3     OH2      OT      -0.834000       15.9994           0
     34425 TIP3     5697     TIP3     H1       HT       0.417000       1.00800           0
     34426 TIP3     5697     TIP3     H2       HT       0.417000       1.00800           0
     34427 TIP3     5698     TIP3     OH2      OT      -0.834000       15.9994           0
     34428 TIP3     5698     TIP3     H1       HT       0.417000       1.00800           0
     34429 TIP3     5698     TIP3     H2       HT       0.417000       1.00800           0
     34430 TIP3     5699     TIP3     OH2      OT      -0.834000       15.9994           0
     34431 TIP3     5699     TIP3     H1       HT       0.417000       1.00800           0
     34432 TIP3     5699     TIP3     H2       HT       0.417000       1.00800           0
     34433 TIP3     5700     TIP3     OH2      OT      -0.834000       15.9994           0
     34434 TIP3     5700     TIP3     H1       HT       0.417000       1.00800           0
     34435 TIP3     5700     TIP3     H2       HT       0.417000       1.00800           0
     34436 TIP3     5701     TIP3     OH2      OT      -0.834000       15.9994           0
     34437 TIP3     5701     TIP3     H1       HT       0.417000       1.00800           0
     34438 TIP3     5701     TIP3     H2       HT       0.417000       1.00800           0
     34439 TIP3     5702     TIP3     OH2      OT      -0.834000       15.9994           0
     34440 TIP3     5702     TIP3     H1       HT       0.417000       1.00800           0
     34441 TIP3     5702     TIP3     H2       HT       0.417000       1.00800           0
     34442 TIP3     5703     TIP3     OH2      OT      -0.834000       15.9994           0
     34443 TIP3     5703     TIP3     H1       HT       0.417000       1.00800           0
     34444 TIP3     5703     TIP3     H2       HT       0.417000       1.00800           0
     34445 TIP3     5704     TIP3     OH2      OT      -0.834000       15.9994           0
     34446 TIP3     5704     TIP3     H1       HT       0.417000       1.00800           0
     34447 TIP3     5704     TIP3     H2       HT       0.417000       1.00800           0
     34448 TIP3     5705     TIP3     OH2      OT      -0.834000       15.9994           0
     34449 TIP3     5705     TIP3     H1       HT       0.417000       1.00800           0
     34450 TIP3     5705     TIP3     H2       HT       0.417000       1.00800           0
     34451 TIP3     5706     TIP3     OH2      OT      -0.834000       15.9994           0
     34452 TIP3     5706     TIP3     H1       HT       0.417000       1.00800           0
     34453 TIP3     5706     TIP3     H2       HT       0.417000       1.00800           0
     34454 TIP3     5707     TIP3     OH2      OT      -0.834000       15.9994           0
     34455 TIP3     5707     TIP3     H1       HT       0.417000       1.00800           0
     34456 TIP3     5707     TIP3     H2       HT       0.417000       1.00800           0
     34457 TIP3     5708     TIP3     OH2      OT      -0.834000       15.9994           0
     34458 TIP3     5708     TIP3     H1       HT       0.417000       1.00800           0
     34459 TIP3     5708     TIP3     H2       HT       0.417000       1.00800           0
     34460 TIP3     5709     TIP3     OH2      OT      -0.834000       15.9994           0
     34461 TIP3     5709     TIP3     H1       HT       0.417000       1.00800           0
     34462 TIP3     5709     TIP3     H2       HT       0.417000       1.00800           0
     34463 TIP3     5710     TIP3     OH2      OT      -0.834000       15.9994           0
     34464 TIP3     5710     TIP3     H1       HT       0.417000       1.00800           0
     34465 TIP3     5710     TIP3     H2       HT       0.417000       1.00800           0
     34466 TIP3     5711     TIP3     OH2      OT      -0.834000       15.9994           0
     34467 TIP3     5711     TIP3     H1       HT       0.417000       1.00800           0
     34468 TIP3     5711     TIP3     H2       HT       0.417000       1.00800           0
     34469 TIP3     5712     TIP3     OH2      OT      -0.834000       15.9994           0
     34470 TIP3     5712     TIP3     H1       HT       0.417000       1.00800           0
     34471 TIP3     5712     TIP3     H2       HT       0.417000       1.00800           0
     34472 TIP3     5713     TIP3     OH2      OT      -0.834000       15.9994           0
     34473 TIP3     5713     TIP3     H1       HT       0.417000       1.00800           0
     34474 TIP3     5713     TIP3     H2       HT       0.417000       1.00800           0
     34475 TIP3     5714     TIP3     OH2      OT      -0.834000       15.9994           0
     34476 TIP3     5714     TIP3     H1       HT       0.417000       1.00800           0
     34477 TIP3     5714     TIP3     H2       HT       0.417000       1.00800           0
     34478 TIP3     5715     TIP3     OH2      OT      -0.834000       15.9994           0
     34479 TIP3     5715     TIP3     H1       HT       0.417000       1.00800           0
     34480 TIP3     5715     TIP3     H2       HT       0.417000       1.00800           0
     34481 TIP3     5716     TIP3     OH2      OT      -0.834000       15.9994           0
     34482 TIP3     5716     TIP3     H1       HT       0.417000       1.00800           0
     34483 TIP3     5716     TIP3     H2       HT       0.417000       1.00800           0
     34484 TIP3     5717     TIP3     OH2      OT      -0.834000       15.9994           0
     34485 TIP3     5717     TIP3     H1       HT       0.417000       1.00800           0
     34486 TIP3     5717     TIP3     H2       HT       0.417000       1.00800           0
     34487 TIP3     5718     TIP3     OH2      OT      -0.834000       15.9994           0
     34488 TIP3     5718     TIP3     H1       HT       0.417000       1.00800           0
     34489 TIP3     5718     TIP3     H2       HT       0.417000       1.00800           0
     34490 TIP3     5719     TIP3     OH2      OT      -0.834000       15.9994           0
     34491 TIP3     5719     TIP3     H1       HT       0.417000       1.00800           0
     34492 TIP3     5719     TIP3     H2       HT       0.417000       1.00800           0
     34493 TIP3     5720     TIP3     OH2      OT      -0.834000       15.9994           0
     34494 TIP3     5720     TIP3     H1       HT       0.417000       1.00800           0
     34495 TIP3     5720     TIP3     H2       HT       0.417000       1.00800           0
     34496 TIP3     5721     TIP3     OH2      OT      -0.834000       15.9994           0
     34497 TIP3     5721     TIP3     H1       HT       0.417000       1.00800           0
     34498 TIP3     5721     TIP3     H2       HT       0.417000       1.00800           0
     34499 TIP3     5722     TIP3     OH2      OT      -0.834000       15.9994           0
     34500 TIP3     5722     TIP3     H1       HT       0.417000       1.00800           0
     34501 TIP3     5722     TIP3     H2       HT       0.417000       1.00800           0
     34502 TIP3     5723     TIP3     OH2      OT      -0.834000       15.9994           0
     34503 TIP3     5723     TIP3     H1       HT       0.417000       1.00800           0
     34504 TIP3     5723     TIP3     H2       HT       0.417000       1.00800           0
     34505 TIP3     5724     TIP3     OH2      OT      -0.834000       15.9994           0
     34506 TIP3     5724     TIP3     H1       HT       0.417000       1.00800           0
     34507 TIP3     5724     TIP3     H2       HT       0.417000       1.00800           0
     34508 TIP3     5725     TIP3     OH2      OT      -0.834000       15.9994           0
     34509 TIP3     5725     TIP3     H1       HT       0.417000       1.00800           0
     34510 TIP3     5725     TIP3     H2       HT       0.417000       1.00800           0
     34511 TIP3     5726     TIP3     OH2      OT      -0.834000       15.9994           0
     34512 TIP3     5726     TIP3     H1       HT       0.417000       1.00800           0
     34513 TIP3     5726     TIP3     H2       HT       0.417000       1.00800           0
     34514 TIP3     5727     TIP3     OH2      OT      -0.834000       15.9994           0
     34515 TIP3     5727     TIP3     H1       HT       0.417000       1.00800           0
     34516 TIP3     5727     TIP3     H2       HT       0.417000       1.00800           0
     34517 TIP3     5728     TIP3     OH2      OT      -0.834000       15.9994           0
     34518 TIP3     5728     TIP3     H1       HT       0.417000       1.00800           0
     34519 TIP3     5728     TIP3     H2       HT       0.417000       1.00800           0
     34520 TIP3     5729     TIP3     OH2      OT      -0.834000       15.9994           0
     34521 TIP3     5729     TIP3     H1       HT       0.417000       1.00800           0
     34522 TIP3     5729     TIP3     H2       HT       0.417000       1.00800           0
     34523 TIP3     5730     TIP3     OH2      OT      -0.834000       15.9994           0
     34524 TIP3     5730     TIP3     H1       HT       0.417000       1.00800           0
     34525 TIP3     5730     TIP3     H2       HT       0.417000       1.00800           0
     34526 TIP3     5731     TIP3     OH2      OT      -0.834000       15.9994           0
     34527 TIP3     5731     TIP3     H1       HT       0.417000       1.00800           0
     34528 TIP3     5731     TIP3     H2       HT       0.417000       1.00800           0
     34529 TIP3     5732     TIP3     OH2      OT      -0.834000       15.9994           0
     34530 TIP3     5732     TIP3     H1       HT       0.417000       1.00800           0
     34531 TIP3     5732     TIP3     H2       HT       0.417000       1.00800           0
     34532 TIP3     5733     TIP3     OH2      OT      -0.834000       15.9994           0
     34533 TIP3     5733     TIP3     H1       HT       0.417000       1.00800           0
     34534 TIP3     5733     TIP3     H2       HT       0.417000       1.00800           0
     34535 TIP3     5734     TIP3     OH2      OT      -0.834000       15.9994           0
     34536 TIP3     5734     TIP3     H1       HT       0.417000       1.00800           0
     34537 TIP3     5734     TIP3     H2       HT       0.417000       1.00800           0
     34538 TIP3     5735     TIP3     OH2      OT      -0.834000       15.9994           0
     34539 TIP3     5735     TIP3     H1       HT       0.417000       1.00800           0
     34540 TIP3     5735     TIP3     H2       HT       0.417000       1.00800           0
     34541 TIP3     5736     TIP3     OH2      OT      -0.834000       15.9994           0
     34542 TIP3     5736     TIP3     H1       HT       0.417000       1.00800           0
     34543 TIP3     5736     TIP3     H2       HT       0.417000       1.00800           0
     34544 TIP3     5737     TIP3     OH2      OT      -0.834000       15.9994           0
     34545 TIP3     5737     TIP3     H1       HT       0.417000       1.00800           0
     34546 TIP3     5737     TIP3     H2       HT       0.417000       1.00800           0
     34547 TIP3     5738     TIP3     OH2      OT      -0.834000       15.9994           0
     34548 TIP3     5738     TIP3     H1       HT       0.417000       1.00800           0
     34549 TIP3     5738     TIP3     H2       HT       0.417000       1.00800           0
     34550 TIP3     5739     TIP3     OH2      OT      -0.834000       15.9994           0
     34551 TIP3     5739     TIP3     H1       HT       0.417000       1.00800           0
     34552 TIP3     5739     TIP3     H2       HT       0.417000       1.00800           0
     34553 TIP3     5740     TIP3     OH2      OT      -0.834000       15.9994           0
     34554 TIP3     5740     TIP3     H1       HT       0.417000       1.00800           0
     34555 TIP3     5740     TIP3     H2       HT       0.417000       1.00800           0
     34556 TIP3     5741     TIP3     OH2      OT      -0.834000       15.9994           0
     34557 TIP3     5741     TIP3     H1       HT       0.417000       1.00800           0
     34558 TIP3     5741     TIP3     H2       HT       0.417000       1.00800           0
     34559 TIP3     5742     TIP3     OH2      OT      -0.834000       15.9994           0
     34560 TIP3     5742     TIP3     H1       HT       0.417000       1.00800           0
     34561 TIP3     5742     TIP3     H2       HT       0.417000       1.00800           0
     34562 TIP3     5743     TIP3     OH2      OT      -0.834000       15.9994           0
     34563 TIP3     5743     TIP3     H1       HT       0.417000       1.00800           0
     34564 TIP3     5743     TIP3     H2       HT       0.417000       1.00800           0
     34565 TIP3     5744     TIP3     OH2      OT      -0.834000       15.9994           0
     34566 TIP3     5744     TIP3     H1       HT       0.417000       1.00800           0
     34567 TIP3     5744     TIP3     H2       HT       0.417000       1.00800           0
     34568 TIP3     5745     TIP3     OH2      OT      -0.834000       15.9994           0
     34569 TIP3     5745     TIP3     H1       HT       0.417000       1.00800           0
     34570 TIP3     5745     TIP3     H2       HT       0.417000       1.00800           0
     34571 TIP3     5746     TIP3     OH2      OT      -0.834000       15.9994           0
     34572 TIP3     5746     TIP3     H1       HT       0.417000       1.00800           0
     34573 TIP3     5746     TIP3     H2       HT       0.417000       1.00800           0
     34574 TIP3     5747     TIP3     OH2      OT      -0.834000       15.9994           0
     34575 TIP3     5747     TIP3     H1       HT       0.417000       1.00800           0
     34576 TIP3     5747     TIP3     H2       HT       0.417000       1.00800           0
     34577 TIP3     5748     TIP3     OH2      OT      -0.834000       15.9994           0
     34578 TIP3     5748     TIP3     H1       HT       0.417000       1.00800           0
     34579 TIP3     5748     TIP3     H2       HT       0.417000       1.00800           0
     34580 TIP3     5749     TIP3     OH2      OT      -0.834000       15.9994           0
     34581 TIP3     5749     TIP3     H1       HT       0.417000       1.00800           0
     34582 TIP3     5749     TIP3     H2       HT       0.417000       1.00800           0
     34583 TIP3     5750     TIP3     OH2      OT      -0.834000       15.9994           0
     34584 TIP3     5750     TIP3     H1       HT       0.417000       1.00800           0
     34585 TIP3     5750     TIP3     H2       HT       0.417000       1.00800           0
     34586 TIP3     5751     TIP3     OH2      OT      -0.834000       15.9994           0
     34587 TIP3     5751     TIP3     H1       HT       0.417000       1.00800           0
     34588 TIP3     5751     TIP3     H2       HT       0.417000       1.00800           0
     34589 TIP3     5752     TIP3     OH2      OT      -0.834000       15.9994           0
     34590 TIP3     5752     TIP3     H1       HT       0.417000       1.00800           0
     34591 TIP3     5752     TIP3     H2       HT       0.417000       1.00800           0
     34592 TIP3     5753     TIP3     OH2      OT      -0.834000       15.9994           0
     34593 TIP3     5753     TIP3     H1       HT       0.417000       1.00800           0
     34594 TIP3     5753     TIP3     H2       HT       0.417000       1.00800           0
     34595 TIP3     5754     TIP3     OH2      OT      -0.834000       15.9994           0
     34596 TIP3     5754     TIP3     H1       HT       0.417000       1.00800           0
     34597 TIP3     5754     TIP3     H2       HT       0.417000       1.00800           0
     34598 TIP3     5755     TIP3     OH2      OT      -0.834000       15.9994           0
     34599 TIP3     5755     TIP3     H1       HT       0.417000       1.00800           0
     34600 TIP3     5755     TIP3     H2       HT       0.417000       1.00800           0
     34601 TIP3     5756     TIP3     OH2      OT      -0.834000       15.9994           0
     34602 TIP3     5756     TIP3     H1       HT       0.417000       1.00800           0
     34603 TIP3     5756     TIP3     H2       HT       0.417000       1.00800           0
     34604 TIP3     5757     TIP3     OH2      OT      -0.834000       15.9994           0
     34605 TIP3     5757     TIP3     H1       HT       0.417000       1.00800           0
     34606 TIP3     5757     TIP3     H2       HT       0.417000       1.00800           0
     34607 TIP3     5758     TIP3     OH2      OT      -0.834000       15.9994           0
     34608 TIP3     5758     TIP3     H1       HT       0.417000       1.00800           0
     34609 TIP3     5758     TIP3     H2       HT       0.417000       1.00800           0
     34610 TIP3     5759     TIP3     OH2      OT      -0.834000       15.9994           0
     34611 TIP3     5759     TIP3     H1       HT       0.417000       1.00800           0
     34612 TIP3     5759     TIP3     H2       HT       0.417000       1.00800           0
     34613 TIP3     5760     TIP3     OH2      OT      -0.834000       15.9994           0
     34614 TIP3     5760     TIP3     H1       HT       0.417000       1.00800           0
     34615 TIP3     5760     TIP3     H2       HT       0.417000       1.00800           0
     34616 TIP3     5761     TIP3     OH2      OT      -0.834000       15.9994           0
     34617 TIP3     5761     TIP3     H1       HT       0.417000       1.00800           0
     34618 TIP3     5761     TIP3     H2       HT       0.417000       1.00800           0
     34619 TIP3     5762     TIP3     OH2      OT      -0.834000       15.9994           0
     34620 TIP3     5762     TIP3     H1       HT       0.417000       1.00800           0
     34621 TIP3     5762     TIP3     H2       HT       0.417000       1.00800           0
     34622 TIP3     5763     TIP3     OH2      OT      -0.834000       15.9994           0
     34623 TIP3     5763     TIP3     H1       HT       0.417000       1.00800           0
     34624 TIP3     5763     TIP3     H2       HT       0.417000       1.00800           0
     34625 TIP3     5764     TIP3     OH2      OT      -0.834000       15.9994           0
     34626 TIP3     5764     TIP3     H1       HT       0.417000       1.00800           0
     34627 TIP3     5764     TIP3     H2       HT       0.417000       1.00800           0
     34628 TIP3     5765     TIP3     OH2      OT      -0.834000       15.9994           0
     34629 TIP3     5765     TIP3     H1       HT       0.417000       1.00800           0
     34630 TIP3     5765     TIP3     H2       HT       0.417000       1.00800           0
     34631 TIP3     5766     TIP3     OH2      OT      -0.834000       15.9994           0
     34632 TIP3     5766     TIP3     H1       HT       0.417000       1.00800           0
     34633 TIP3     5766     TIP3     H2       HT       0.417000       1.00800           0
     34634 TIP3     5767     TIP3     OH2      OT      -0.834000       15.9994           0
     34635 TIP3     5767     TIP3     H1       HT       0.417000       1.00800           0
     34636 TIP3     5767     TIP3     H2       HT       0.417000       1.00800           0
     34637 TIP3     5768     TIP3     OH2      OT      -0.834000       15.9994           0
     34638 TIP3     5768     TIP3     H1       HT       0.417000       1.00800           0
     34639 TIP3     5768     TIP3     H2       HT       0.417000       1.00800           0
     34640 TIP3     5769     TIP3     OH2      OT      -0.834000       15.9994           0
     34641 TIP3     5769     TIP3     H1       HT       0.417000       1.00800           0
     34642 TIP3     5769     TIP3     H2       HT       0.417000       1.00800           0
     34643 TIP3     5770     TIP3     OH2      OT      -0.834000       15.9994           0
     34644 TIP3     5770     TIP3     H1       HT       0.417000       1.00800           0
     34645 TIP3     5770     TIP3     H2       HT       0.417000       1.00800           0
     34646 TIP3     5771     TIP3     OH2      OT      -0.834000       15.9994           0
     34647 TIP3     5771     TIP3     H1       HT       0.417000       1.00800           0
     34648 TIP3     5771     TIP3     H2       HT       0.417000       1.00800           0
     34649 TIP3     5772     TIP3     OH2      OT      -0.834000       15.9994           0
     34650 TIP3     5772     TIP3     H1       HT       0.417000       1.00800           0
     34651 TIP3     5772     TIP3     H2       HT       0.417000       1.00800           0
     34652 TIP3     5773     TIP3     OH2      OT      -0.834000       15.9994           0
     34653 TIP3     5773     TIP3     H1       HT       0.417000       1.00800           0
     34654 TIP3     5773     TIP3     H2       HT       0.417000       1.00800           0
     34655 TIP3     5774     TIP3     OH2      OT      -0.834000       15.9994           0
     34656 TIP3     5774     TIP3     H1       HT       0.417000       1.00800           0
     34657 TIP3     5774     TIP3     H2       HT       0.417000       1.00800           0
     34658 TIP3     5775     TIP3     OH2      OT      -0.834000       15.9994           0
     34659 TIP3     5775     TIP3     H1       HT       0.417000       1.00800           0
     34660 TIP3     5775     TIP3     H2       HT       0.417000       1.00800           0
     34661 TIP3     5776     TIP3     OH2      OT      -0.834000       15.9994           0
     34662 TIP3     5776     TIP3     H1       HT       0.417000       1.00800           0
     34663 TIP3     5776     TIP3     H2       HT       0.417000       1.00800           0
     34664 TIP3     5777     TIP3     OH2      OT      -0.834000       15.9994           0
     34665 TIP3     5777     TIP3     H1       HT       0.417000       1.00800           0
     34666 TIP3     5777     TIP3     H2       HT       0.417000       1.00800           0
     34667 TIP3     5778     TIP3     OH2      OT      -0.834000       15.9994           0
     34668 TIP3     5778     TIP3     H1       HT       0.417000       1.00800           0
     34669 TIP3     5778     TIP3     H2       HT       0.417000       1.00800           0
     34670 TIP3     5779     TIP3     OH2      OT      -0.834000       15.9994           0
     34671 TIP3     5779     TIP3     H1       HT       0.417000       1.00800           0
     34672 TIP3     5779     TIP3     H2       HT       0.417000       1.00800           0
     34673 TIP3     5780     TIP3     OH2      OT      -0.834000       15.9994           0
     34674 TIP3     5780     TIP3     H1       HT       0.417000       1.00800           0
     34675 TIP3     5780     TIP3     H2       HT       0.417000       1.00800           0
     34676 TIP3     5781     TIP3     OH2      OT      -0.834000       15.9994           0
     34677 TIP3     5781     TIP3     H1       HT       0.417000       1.00800           0
     34678 TIP3     5781     TIP3     H2       HT       0.417000       1.00800           0
     34679 TIP3     5782     TIP3     OH2      OT      -0.834000       15.9994           0
     34680 TIP3     5782     TIP3     H1       HT       0.417000       1.00800           0
     34681 TIP3     5782     TIP3     H2       HT       0.417000       1.00800           0
     34682 TIP3     5783     TIP3     OH2      OT      -0.834000       15.9994           0
     34683 TIP3     5783     TIP3     H1       HT       0.417000       1.00800           0
     34684 TIP3     5783     TIP3     H2       HT       0.417000       1.00800           0
     34685 TIP3     5784     TIP3     OH2      OT      -0.834000       15.9994           0
     34686 TIP3     5784     TIP3     H1       HT       0.417000       1.00800           0
     34687 TIP3     5784     TIP3     H2       HT       0.417000       1.00800           0
     34688 TIP3     5785     TIP3     OH2      OT      -0.834000       15.9994           0
     34689 TIP3     5785     TIP3     H1       HT       0.417000       1.00800           0
     34690 TIP3     5785     TIP3     H2       HT       0.417000       1.00800           0
     34691 TIP3     5786     TIP3     OH2      OT      -0.834000       15.9994           0
     34692 TIP3     5786     TIP3     H1       HT       0.417000       1.00800           0
     34693 TIP3     5786     TIP3     H2       HT       0.417000       1.00800           0
     34694 TIP3     5787     TIP3     OH2      OT      -0.834000       15.9994           0
     34695 TIP3     5787     TIP3     H1       HT       0.417000       1.00800           0
     34696 TIP3     5787     TIP3     H2       HT       0.417000       1.00800           0
     34697 TIP3     5788     TIP3     OH2      OT      -0.834000       15.9994           0
     34698 TIP3     5788     TIP3     H1       HT       0.417000       1.00800           0
     34699 TIP3     5788     TIP3     H2       HT       0.417000       1.00800           0
     34700 TIP3     5789     TIP3     OH2      OT      -0.834000       15.9994           0
     34701 TIP3     5789     TIP3     H1       HT       0.417000       1.00800           0
     34702 TIP3     5789     TIP3     H2       HT       0.417000       1.00800           0
     34703 TIP3     5790     TIP3     OH2      OT      -0.834000       15.9994           0
     34704 TIP3     5790     TIP3     H1       HT       0.417000       1.00800           0
     34705 TIP3     5790     TIP3     H2       HT       0.417000       1.00800           0
     34706 TIP3     5791     TIP3     OH2      OT      -0.834000       15.9994           0
     34707 TIP3     5791     TIP3     H1       HT       0.417000       1.00800           0
     34708 TIP3     5791     TIP3     H2       HT       0.417000       1.00800           0
     34709 TIP3     5792     TIP3     OH2      OT      -0.834000       15.9994           0
     34710 TIP3     5792     TIP3     H1       HT       0.417000       1.00800           0
     34711 TIP3     5792     TIP3     H2       HT       0.417000       1.00800           0
     34712 TIP3     5793     TIP3     OH2      OT      -0.834000       15.9994           0
     34713 TIP3     5793     TIP3     H1       HT       0.417000       1.00800           0
     34714 TIP3     5793     TIP3     H2       HT       0.417000       1.00800           0
     34715 TIP3     5794     TIP3     OH2      OT      -0.834000       15.9994           0
     34716 TIP3     5794     TIP3     H1       HT       0.417000       1.00800           0
     34717 TIP3     5794     TIP3     H2       HT       0.417000       1.00800           0
     34718 TIP3     5795     TIP3     OH2      OT      -0.834000       15.9994           0
     34719 TIP3     5795     TIP3     H1       HT       0.417000       1.00800           0
     34720 TIP3     5795     TIP3     H2       HT       0.417000       1.00800           0
     34721 TIP3     5796     TIP3     OH2      OT      -0.834000       15.9994           0
     34722 TIP3     5796     TIP3     H1       HT       0.417000       1.00800           0
     34723 TIP3     5796     TIP3     H2       HT       0.417000       1.00800           0
     34724 TIP3     5797     TIP3     OH2      OT      -0.834000       15.9994           0
     34725 TIP3     5797     TIP3     H1       HT       0.417000       1.00800           0
     34726 TIP3     5797     TIP3     H2       HT       0.417000       1.00800           0
     34727 TIP3     5798     TIP3     OH2      OT      -0.834000       15.9994           0
     34728 TIP3     5798     TIP3     H1       HT       0.417000       1.00800           0
     34729 TIP3     5798     TIP3     H2       HT       0.417000       1.00800           0
     34730 TIP3     5799     TIP3     OH2      OT      -0.834000       15.9994           0
     34731 TIP3     5799     TIP3     H1       HT       0.417000       1.00800           0
     34732 TIP3     5799     TIP3     H2       HT       0.417000       1.00800           0
     34733 TIP3     5800     TIP3     OH2      OT      -0.834000       15.9994           0
     34734 TIP3     5800     TIP3     H1       HT       0.417000       1.00800           0
     34735 TIP3     5800     TIP3     H2       HT       0.417000       1.00800           0
     34736 TIP3     5801     TIP3     OH2      OT      -0.834000       15.9994           0
     34737 TIP3     5801     TIP3     H1       HT       0.417000       1.00800           0
     34738 TIP3     5801     TIP3     H2       HT       0.417000       1.00800           0
     34739 TIP3     5802     TIP3     OH2      OT      -0.834000       15.9994           0
     34740 TIP3     5802     TIP3     H1       HT       0.417000       1.00800           0
     34741 TIP3     5802     TIP3     H2       HT       0.417000       1.00800           0
     34742 TIP3     5803     TIP3     OH2      OT      -0.834000       15.9994           0
     34743 TIP3     5803     TIP3     H1       HT       0.417000       1.00800           0
     34744 TIP3     5803     TIP3     H2       HT       0.417000       1.00800           0
     34745 TIP3     5804     TIP3     OH2      OT      -0.834000       15.9994           0
     34746 TIP3     5804     TIP3     H1       HT       0.417000       1.00800           0
     34747 TIP3     5804     TIP3     H2       HT       0.417000       1.00800           0
     34748 TIP3     5805     TIP3     OH2      OT      -0.834000       15.9994           0
     34749 TIP3     5805     TIP3     H1       HT       0.417000       1.00800           0
     34750 TIP3     5805     TIP3     H2       HT       0.417000       1.00800           0
     34751 TIP3     5806     TIP3     OH2      OT      -0.834000       15.9994           0
     34752 TIP3     5806     TIP3     H1       HT       0.417000       1.00800           0
     34753 TIP3     5806     TIP3     H2       HT       0.417000       1.00800           0
     34754 TIP3     5807     TIP3     OH2      OT      -0.834000       15.9994           0
     34755 TIP3     5807     TIP3     H1       HT       0.417000       1.00800           0
     34756 TIP3     5807     TIP3     H2       HT       0.417000       1.00800           0
     34757 TIP3     5808     TIP3     OH2      OT      -0.834000       15.9994           0
     34758 TIP3     5808     TIP3     H1       HT       0.417000       1.00800           0
     34759 TIP3     5808     TIP3     H2       HT       0.417000       1.00800           0
     34760 TIP3     5809     TIP3     OH2      OT      -0.834000       15.9994           0
     34761 TIP3     5809     TIP3     H1       HT       0.417000       1.00800           0
     34762 TIP3     5809     TIP3     H2       HT       0.417000       1.00800           0
     34763 TIP3     5810     TIP3     OH2      OT      -0.834000       15.9994           0
     34764 TIP3     5810     TIP3     H1       HT       0.417000       1.00800           0
     34765 TIP3     5810     TIP3     H2       HT       0.417000       1.00800           0
     34766 TIP3     5811     TIP3     OH2      OT      -0.834000       15.9994           0
     34767 TIP3     5811     TIP3     H1       HT       0.417000       1.00800           0
     34768 TIP3     5811     TIP3     H2       HT       0.417000       1.00800           0
     34769 TIP3     5812     TIP3     OH2      OT      -0.834000       15.9994           0
     34770 TIP3     5812     TIP3     H1       HT       0.417000       1.00800           0
     34771 TIP3     5812     TIP3     H2       HT       0.417000       1.00800           0
     34772 TIP3     5813     TIP3     OH2      OT      -0.834000       15.9994           0
     34773 TIP3     5813     TIP3     H1       HT       0.417000       1.00800           0
     34774 TIP3     5813     TIP3     H2       HT       0.417000       1.00800           0
     34775 TIP3     5814     TIP3     OH2      OT      -0.834000       15.9994           0
     34776 TIP3     5814     TIP3     H1       HT       0.417000       1.00800           0
     34777 TIP3     5814     TIP3     H2       HT       0.417000       1.00800           0
     34778 TIP3     5815     TIP3     OH2      OT      -0.834000       15.9994           0
     34779 TIP3     5815     TIP3     H1       HT       0.417000       1.00800           0
     34780 TIP3     5815     TIP3     H2       HT       0.417000       1.00800           0
     34781 TIP3     5816     TIP3     OH2      OT      -0.834000       15.9994           0
     34782 TIP3     5816     TIP3     H1       HT       0.417000       1.00800           0
     34783 TIP3     5816     TIP3     H2       HT       0.417000       1.00800           0
     34784 TIP3     5817     TIP3     OH2      OT      -0.834000       15.9994           0
     34785 TIP3     5817     TIP3     H1       HT       0.417000       1.00800           0
     34786 TIP3     5817     TIP3     H2       HT       0.417000       1.00800           0
     34787 TIP3     5818     TIP3     OH2      OT      -0.834000       15.9994           0
     34788 TIP3     5818     TIP3     H1       HT       0.417000       1.00800           0
     34789 TIP3     5818     TIP3     H2       HT       0.417000       1.00800           0
     34790 TIP3     5819     TIP3     OH2      OT      -0.834000       15.9994           0
     34791 TIP3     5819     TIP3     H1       HT       0.417000       1.00800           0
     34792 TIP3     5819     TIP3     H2       HT       0.417000       1.00800           0
     34793 TIP3     5820     TIP3     OH2      OT      -0.834000       15.9994           0
     34794 TIP3     5820     TIP3     H1       HT       0.417000       1.00800           0
     34795 TIP3     5820     TIP3     H2       HT       0.417000       1.00800           0
     34796 TIP3     5821     TIP3     OH2      OT      -0.834000       15.9994           0
     34797 TIP3     5821     TIP3     H1       HT       0.417000       1.00800           0
     34798 TIP3     5821     TIP3     H2       HT       0.417000       1.00800           0
     34799 TIP3     5822     TIP3     OH2      OT      -0.834000       15.9994           0
     34800 TIP3     5822     TIP3     H1       HT       0.417000       1.00800           0
     34801 TIP3     5822     TIP3     H2       HT       0.417000       1.00800           0
     34802 TIP3     5823     TIP3     OH2      OT      -0.834000       15.9994           0
     34803 TIP3     5823     TIP3     H1       HT       0.417000       1.00800           0
     34804 TIP3     5823     TIP3     H2       HT       0.417000       1.00800           0
     34805 TIP3     5824     TIP3     OH2      OT      -0.834000       15.9994           0
     34806 TIP3     5824     TIP3     H1       HT       0.417000       1.00800           0
     34807 TIP3     5824     TIP3     H2       HT       0.417000       1.00800           0
     34808 TIP3     5825     TIP3     OH2      OT      -0.834000       15.9994           0
     34809 TIP3     5825     TIP3     H1       HT       0.417000       1.00800           0
     34810 TIP3     5825     TIP3     H2       HT       0.417000       1.00800           0
     34811 TIP3     5826     TIP3     OH2      OT      -0.834000       15.9994           0
     34812 TIP3     5826     TIP3     H1       HT       0.417000       1.00800           0
     34813 TIP3     5826     TIP3     H2       HT       0.417000       1.00800           0
     34814 TIP3     5827     TIP3     OH2      OT      -0.834000       15.9994           0
     34815 TIP3     5827     TIP3     H1       HT       0.417000       1.00800           0
     34816 TIP3     5827     TIP3     H2       HT       0.417000       1.00800           0
     34817 TIP3     5828     TIP3     OH2      OT      -0.834000       15.9994           0
     34818 TIP3     5828     TIP3     H1       HT       0.417000       1.00800           0
     34819 TIP3     5828     TIP3     H2       HT       0.417000       1.00800           0
     34820 TIP3     5829     TIP3     OH2      OT      -0.834000       15.9994           0
     34821 TIP3     5829     TIP3     H1       HT       0.417000       1.00800           0
     34822 TIP3     5829     TIP3     H2       HT       0.417000       1.00800           0
     34823 TIP3     5830     TIP3     OH2      OT      -0.834000       15.9994           0
     34824 TIP3     5830     TIP3     H1       HT       0.417000       1.00800           0
     34825 TIP3     5830     TIP3     H2       HT       0.417000       1.00800           0
     34826 TIP3     5831     TIP3     OH2      OT      -0.834000       15.9994           0
     34827 TIP3     5831     TIP3     H1       HT       0.417000       1.00800           0
     34828 TIP3     5831     TIP3     H2       HT       0.417000       1.00800           0
     34829 TIP3     5832     TIP3     OH2      OT      -0.834000       15.9994           0
     34830 TIP3     5832     TIP3     H1       HT       0.417000       1.00800           0
     34831 TIP3     5832     TIP3     H2       HT       0.417000       1.00800           0
     34832 TIP3     5833     TIP3     OH2      OT      -0.834000       15.9994           0
     34833 TIP3     5833     TIP3     H1       HT       0.417000       1.00800           0
     34834 TIP3     5833     TIP3     H2       HT       0.417000       1.00800           0
     34835 TIP3     5834     TIP3     OH2      OT      -0.834000       15.9994           0
     34836 TIP3     5834     TIP3     H1       HT       0.417000       1.00800           0
     34837 TIP3     5834     TIP3     H2       HT       0.417000       1.00800           0
     34838 TIP3     5835     TIP3     OH2      OT      -0.834000       15.9994           0
     34839 TIP3     5835     TIP3     H1       HT       0.417000       1.00800           0
     34840 TIP3     5835     TIP3     H2       HT       0.417000       1.00800           0
     34841 TIP3     5836     TIP3     OH2      OT      -0.834000       15.9994           0
     34842 TIP3     5836     TIP3     H1       HT       0.417000       1.00800           0
     34843 TIP3     5836     TIP3     H2       HT       0.417000       1.00800           0
     34844 TIP3     5837     TIP3     OH2      OT      -0.834000       15.9994           0
     34845 TIP3     5837     TIP3     H1       HT       0.417000       1.00800           0
     34846 TIP3     5837     TIP3     H2       HT       0.417000       1.00800           0
     34847 TIP3     5838     TIP3     OH2      OT      -0.834000       15.9994           0
     34848 TIP3     5838     TIP3     H1       HT       0.417000       1.00800           0
     34849 TIP3     5838     TIP3     H2       HT       0.417000       1.00800           0
     34850 TIP3     5839     TIP3     OH2      OT      -0.834000       15.9994           0
     34851 TIP3     5839     TIP3     H1       HT       0.417000       1.00800           0
     34852 TIP3     5839     TIP3     H2       HT       0.417000       1.00800           0
     34853 TIP3     5840     TIP3     OH2      OT      -0.834000       15.9994           0
     34854 TIP3     5840     TIP3     H1       HT       0.417000       1.00800           0
     34855 TIP3     5840     TIP3     H2       HT       0.417000       1.00800           0
     34856 TIP3     5841     TIP3     OH2      OT      -0.834000       15.9994           0
     34857 TIP3     5841     TIP3     H1       HT       0.417000       1.00800           0
     34858 TIP3     5841     TIP3     H2       HT       0.417000       1.00800           0
     34859 TIP3     5842     TIP3     OH2      OT      -0.834000       15.9994           0
     34860 TIP3     5842     TIP3     H1       HT       0.417000       1.00800           0
     34861 TIP3     5842     TIP3     H2       HT       0.417000       1.00800           0
     34862 TIP3     5843     TIP3     OH2      OT      -0.834000       15.9994           0
     34863 TIP3     5843     TIP3     H1       HT       0.417000       1.00800           0
     34864 TIP3     5843     TIP3     H2       HT       0.417000       1.00800           0
     34865 TIP3     5844     TIP3     OH2      OT      -0.834000       15.9994           0
     34866 TIP3     5844     TIP3     H1       HT       0.417000       1.00800           0
     34867 TIP3     5844     TIP3     H2       HT       0.417000       1.00800           0
     34868 TIP3     5845     TIP3     OH2      OT      -0.834000       15.9994           0
     34869 TIP3     5845     TIP3     H1       HT       0.417000       1.00800           0
     34870 TIP3     5845     TIP3     H2       HT       0.417000       1.00800           0
     34871 TIP3     5846     TIP3     OH2      OT      -0.834000       15.9994           0
     34872 TIP3     5846     TIP3     H1       HT       0.417000       1.00800           0
     34873 TIP3     5846     TIP3     H2       HT       0.417000       1.00800           0
     34874 TIP3     5847     TIP3     OH2      OT      -0.834000       15.9994           0
     34875 TIP3     5847     TIP3     H1       HT       0.417000       1.00800           0
     34876 TIP3     5847     TIP3     H2       HT       0.417000       1.00800           0
     34877 TIP3     5848     TIP3     OH2      OT      -0.834000       15.9994           0
     34878 TIP3     5848     TIP3     H1       HT       0.417000       1.00800           0
     34879 TIP3     5848     TIP3     H2       HT       0.417000       1.00800           0
     34880 TIP3     5849     TIP3     OH2      OT      -0.834000       15.9994           0
     34881 TIP3     5849     TIP3     H1       HT       0.417000       1.00800           0
     34882 TIP3     5849     TIP3     H2       HT       0.417000       1.00800           0
     34883 TIP3     5850     TIP3     OH2      OT      -0.834000       15.9994           0
     34884 TIP3     5850     TIP3     H1       HT       0.417000       1.00800           0
     34885 TIP3     5850     TIP3     H2       HT       0.417000       1.00800           0
     34886 TIP3     5851     TIP3     OH2      OT      -0.834000       15.9994           0
     34887 TIP3     5851     TIP3     H1       HT       0.417000       1.00800           0
     34888 TIP3     5851     TIP3     H2       HT       0.417000       1.00800           0
     34889 TIP3     5852     TIP3     OH2      OT      -0.834000       15.9994           0
     34890 TIP3     5852     TIP3     H1       HT       0.417000       1.00800           0
     34891 TIP3     5852     TIP3     H2       HT       0.417000       1.00800           0
     34892 TIP3     5853     TIP3     OH2      OT      -0.834000       15.9994           0
     34893 TIP3     5853     TIP3     H1       HT       0.417000       1.00800           0
     34894 TIP3     5853     TIP3     H2       HT       0.417000       1.00800           0
     34895 TIP3     5854     TIP3     OH2      OT      -0.834000       15.9994           0
     34896 TIP3     5854     TIP3     H1       HT       0.417000       1.00800           0
     34897 TIP3     5854     TIP3     H2       HT       0.417000       1.00800           0
     34898 TIP3     5855     TIP3     OH2      OT      -0.834000       15.9994           0
     34899 TIP3     5855     TIP3     H1       HT       0.417000       1.00800           0
     34900 TIP3     5855     TIP3     H2       HT       0.417000       1.00800           0
     34901 TIP3     5856     TIP3     OH2      OT      -0.834000       15.9994           0
     34902 TIP3     5856     TIP3     H1       HT       0.417000       1.00800           0
     34903 TIP3     5856     TIP3     H2       HT       0.417000       1.00800           0
     34904 TIP3     5857     TIP3     OH2      OT      -0.834000       15.9994           0
     34905 TIP3     5857     TIP3     H1       HT       0.417000       1.00800           0
     34906 TIP3     5857     TIP3     H2       HT       0.417000       1.00800           0
     34907 TIP3     5858     TIP3     OH2      OT      -0.834000       15.9994           0
     34908 TIP3     5858     TIP3     H1       HT       0.417000       1.00800           0
     34909 TIP3     5858     TIP3     H2       HT       0.417000       1.00800           0
     34910 TIP3     5859     TIP3     OH2      OT      -0.834000       15.9994           0
     34911 TIP3     5859     TIP3     H1       HT       0.417000       1.00800           0
     34912 TIP3     5859     TIP3     H2       HT       0.417000       1.00800           0
     34913 TIP3     5860     TIP3     OH2      OT      -0.834000       15.9994           0
     34914 TIP3     5860     TIP3     H1       HT       0.417000       1.00800           0
     34915 TIP3     5860     TIP3     H2       HT       0.417000       1.00800           0
     34916 TIP3     5861     TIP3     OH2      OT      -0.834000       15.9994           0
     34917 TIP3     5861     TIP3     H1       HT       0.417000       1.00800           0
     34918 TIP3     5861     TIP3     H2       HT       0.417000       1.00800           0
     34919 TIP3     5862     TIP3     OH2      OT      -0.834000       15.9994           0
     34920 TIP3     5862     TIP3     H1       HT       0.417000       1.00800           0
     34921 TIP3     5862     TIP3     H2       HT       0.417000       1.00800           0
     34922 TIP3     5863     TIP3     OH2      OT      -0.834000       15.9994           0
     34923 TIP3     5863     TIP3     H1       HT       0.417000       1.00800           0
     34924 TIP3     5863     TIP3     H2       HT       0.417000       1.00800           0
     34925 TIP3     5864     TIP3     OH2      OT      -0.834000       15.9994           0
     34926 TIP3     5864     TIP3     H1       HT       0.417000       1.00800           0
     34927 TIP3     5864     TIP3     H2       HT       0.417000       1.00800           0
     34928 TIP3     5865     TIP3     OH2      OT      -0.834000       15.9994           0
     34929 TIP3     5865     TIP3     H1       HT       0.417000       1.00800           0
     34930 TIP3     5865     TIP3     H2       HT       0.417000       1.00800           0
     34931 TIP3     5866     TIP3     OH2      OT      -0.834000       15.9994           0
     34932 TIP3     5866     TIP3     H1       HT       0.417000       1.00800           0
     34933 TIP3     5866     TIP3     H2       HT       0.417000       1.00800           0
     34934 TIP3     5867     TIP3     OH2      OT      -0.834000       15.9994           0
     34935 TIP3     5867     TIP3     H1       HT       0.417000       1.00800           0
     34936 TIP3     5867     TIP3     H2       HT       0.417000       1.00800           0
     34937 TIP3     5868     TIP3     OH2      OT      -0.834000       15.9994           0
     34938 TIP3     5868     TIP3     H1       HT       0.417000       1.00800           0
     34939 TIP3     5868     TIP3     H2       HT       0.417000       1.00800           0
     34940 TIP3     5869     TIP3     OH2      OT      -0.834000       15.9994           0
     34941 TIP3     5869     TIP3     H1       HT       0.417000       1.00800           0
     34942 TIP3     5869     TIP3     H2       HT       0.417000       1.00800           0
     34943 TIP3     5870     TIP3     OH2      OT      -0.834000       15.9994           0
     34944 TIP3     5870     TIP3     H1       HT       0.417000       1.00800           0
     34945 TIP3     5870     TIP3     H2       HT       0.417000       1.00800           0
     34946 TIP3     5871     TIP3     OH2      OT      -0.834000       15.9994           0
     34947 TIP3     5871     TIP3     H1       HT       0.417000       1.00800           0
     34948 TIP3     5871     TIP3     H2       HT       0.417000       1.00800           0
     34949 TIP3     5872     TIP3     OH2      OT      -0.834000       15.9994           0
     34950 TIP3     5872     TIP3     H1       HT       0.417000       1.00800           0
     34951 TIP3     5872     TIP3     H2       HT       0.417000       1.00800           0
     34952 TIP3     5873     TIP3     OH2      OT      -0.834000       15.9994           0
     34953 TIP3     5873     TIP3     H1       HT       0.417000       1.00800           0
     34954 TIP3     5873     TIP3     H2       HT       0.417000       1.00800           0
     34955 TIP3     5874     TIP3     OH2      OT      -0.834000       15.9994           0
     34956 TIP3     5874     TIP3     H1       HT       0.417000       1.00800           0
     34957 TIP3     5874     TIP3     H2       HT       0.417000       1.00800           0
     34958 TIP3     5875     TIP3     OH2      OT      -0.834000       15.9994           0
     34959 TIP3     5875     TIP3     H1       HT       0.417000       1.00800           0
     34960 TIP3     5875     TIP3     H2       HT       0.417000       1.00800           0
     34961 TIP3     5876     TIP3     OH2      OT      -0.834000       15.9994           0
     34962 TIP3     5876     TIP3     H1       HT       0.417000       1.00800           0
     34963 TIP3     5876     TIP3     H2       HT       0.417000       1.00800           0
     34964 TIP3     5877     TIP3     OH2      OT      -0.834000       15.9994           0
     34965 TIP3     5877     TIP3     H1       HT       0.417000       1.00800           0
     34966 TIP3     5877     TIP3     H2       HT       0.417000       1.00800           0
     34967 TIP3     5878     TIP3     OH2      OT      -0.834000       15.9994           0
     34968 TIP3     5878     TIP3     H1       HT       0.417000       1.00800           0
     34969 TIP3     5878     TIP3     H2       HT       0.417000       1.00800           0
     34970 TIP3     5879     TIP3     OH2      OT      -0.834000       15.9994           0
     34971 TIP3     5879     TIP3     H1       HT       0.417000       1.00800           0
     34972 TIP3     5879     TIP3     H2       HT       0.417000       1.00800           0
     34973 TIP3     5880     TIP3     OH2      OT      -0.834000       15.9994           0
     34974 TIP3     5880     TIP3     H1       HT       0.417000       1.00800           0
     34975 TIP3     5880     TIP3     H2       HT       0.417000       1.00800           0
     34976 TIP3     5881     TIP3     OH2      OT      -0.834000       15.9994           0
     34977 TIP3     5881     TIP3     H1       HT       0.417000       1.00800           0
     34978 TIP3     5881     TIP3     H2       HT       0.417000       1.00800           0
     34979 TIP3     5882     TIP3     OH2      OT      -0.834000       15.9994           0
     34980 TIP3     5882     TIP3     H1       HT       0.417000       1.00800           0
     34981 TIP3     5882     TIP3     H2       HT       0.417000       1.00800           0
     34982 TIP3     5883     TIP3     OH2      OT      -0.834000       15.9994           0
     34983 TIP3     5883     TIP3     H1       HT       0.417000       1.00800           0
     34984 TIP3     5883     TIP3     H2       HT       0.417000       1.00800           0
     34985 TIP3     5884     TIP3     OH2      OT      -0.834000       15.9994           0
     34986 TIP3     5884     TIP3     H1       HT       0.417000       1.00800           0
     34987 TIP3     5884     TIP3     H2       HT       0.417000       1.00800           0
     34988 TIP3     5885     TIP3     OH2      OT      -0.834000       15.9994           0
     34989 TIP3     5885     TIP3     H1       HT       0.417000       1.00800           0
     34990 TIP3     5885     TIP3     H2       HT       0.417000       1.00800           0
     34991 TIP3     5886     TIP3     OH2      OT      -0.834000       15.9994           0
     34992 TIP3     5886     TIP3     H1       HT       0.417000       1.00800           0
     34993 TIP3     5886     TIP3     H2       HT       0.417000       1.00800           0
     34994 TIP3     5887     TIP3     OH2      OT      -0.834000       15.9994           0
     34995 TIP3     5887     TIP3     H1       HT       0.417000       1.00800           0
     34996 TIP3     5887     TIP3     H2       HT       0.417000       1.00800           0
     34997 TIP3     5888     TIP3     OH2      OT      -0.834000       15.9994           0
     34998 TIP3     5888     TIP3     H1       HT       0.417000       1.00800           0
     34999 TIP3     5888     TIP3     H2       HT       0.417000       1.00800           0
     35000 TIP3     5889     TIP3     OH2      OT      -0.834000       15.9994           0
     35001 TIP3     5889     TIP3     H1       HT       0.417000       1.00800           0
     35002 TIP3     5889     TIP3     H2       HT       0.417000       1.00800           0
     35003 TIP3     5890     TIP3     OH2      OT      -0.834000       15.9994           0
     35004 TIP3     5890     TIP3     H1       HT       0.417000       1.00800           0
     35005 TIP3     5890     TIP3     H2       HT       0.417000       1.00800           0
     35006 TIP3     5891     TIP3     OH2      OT      -0.834000       15.9994           0
     35007 TIP3     5891     TIP3     H1       HT       0.417000       1.00800           0
     35008 TIP3     5891     TIP3     H2       HT       0.417000       1.00800           0
     35009 TIP3     5892     TIP3     OH2      OT      -0.834000       15.9994           0
     35010 TIP3     5892     TIP3     H1       HT       0.417000       1.00800           0
     35011 TIP3     5892     TIP3     H2       HT       0.417000       1.00800           0
     35012 TIP3     5893     TIP3     OH2      OT      -0.834000       15.9994           0
     35013 TIP3     5893     TIP3     H1       HT       0.417000       1.00800           0
     35014 TIP3     5893     TIP3     H2       HT       0.417000       1.00800           0
     35015 TIP3     5894     TIP3     OH2      OT      -0.834000       15.9994           0
     35016 TIP3     5894     TIP3     H1       HT       0.417000       1.00800           0
     35017 TIP3     5894     TIP3     H2       HT       0.417000       1.00800           0
     35018 TIP3     5895     TIP3     OH2      OT      -0.834000       15.9994           0
     35019 TIP3     5895     TIP3     H1       HT       0.417000       1.00800           0
     35020 TIP3     5895     TIP3     H2       HT       0.417000       1.00800           0
     35021 TIP3     5896     TIP3     OH2      OT      -0.834000       15.9994           0
     35022 TIP3     5896     TIP3     H1       HT       0.417000       1.00800           0
     35023 TIP3     5896     TIP3     H2       HT       0.417000       1.00800           0
     35024 TIP3     5897     TIP3     OH2      OT      -0.834000       15.9994           0
     35025 TIP3     5897     TIP3     H1       HT       0.417000       1.00800           0
     35026 TIP3     5897     TIP3     H2       HT       0.417000       1.00800           0
     35027 TIP3     5898     TIP3     OH2      OT      -0.834000       15.9994           0
     35028 TIP3     5898     TIP3     H1       HT       0.417000       1.00800           0
     35029 TIP3     5898     TIP3     H2       HT       0.417000       1.00800           0
     35030 TIP3     5899     TIP3     OH2      OT      -0.834000       15.9994           0
     35031 TIP3     5899     TIP3     H1       HT       0.417000       1.00800           0
     35032 TIP3     5899     TIP3     H2       HT       0.417000       1.00800           0
     35033 TIP3     5900     TIP3     OH2      OT      -0.834000       15.9994           0
     35034 TIP3     5900     TIP3     H1       HT       0.417000       1.00800           0
     35035 TIP3     5900     TIP3     H2       HT       0.417000       1.00800           0
     35036 TIP3     5901     TIP3     OH2      OT      -0.834000       15.9994           0
     35037 TIP3     5901     TIP3     H1       HT       0.417000       1.00800           0
     35038 TIP3     5901     TIP3     H2       HT       0.417000       1.00800           0
     35039 TIP3     5902     TIP3     OH2      OT      -0.834000       15.9994           0
     35040 TIP3     5902     TIP3     H1       HT       0.417000       1.00800           0
     35041 TIP3     5902     TIP3     H2       HT       0.417000       1.00800           0
     35042 TIP3     5903     TIP3     OH2      OT      -0.834000       15.9994           0
     35043 TIP3     5903     TIP3     H1       HT       0.417000       1.00800           0
     35044 TIP3     5903     TIP3     H2       HT       0.417000       1.00800           0
     35045 TIP3     5904     TIP3     OH2      OT      -0.834000       15.9994           0
     35046 TIP3     5904     TIP3     H1       HT       0.417000       1.00800           0
     35047 TIP3     5904     TIP3     H2       HT       0.417000       1.00800           0
     35048 TIP3     5905     TIP3     OH2      OT      -0.834000       15.9994           0
     35049 TIP3     5905     TIP3     H1       HT       0.417000       1.00800           0
     35050 TIP3     5905     TIP3     H2       HT       0.417000       1.00800           0
     35051 TIP3     5906     TIP3     OH2      OT      -0.834000       15.9994           0
     35052 TIP3     5906     TIP3     H1       HT       0.417000       1.00800           0
     35053 TIP3     5906     TIP3     H2       HT       0.417000       1.00800           0
     35054 TIP3     5907     TIP3     OH2      OT      -0.834000       15.9994           0
     35055 TIP3     5907     TIP3     H1       HT       0.417000       1.00800           0
     35056 TIP3     5907     TIP3     H2       HT       0.417000       1.00800           0
     35057 TIP3     5908     TIP3     OH2      OT      -0.834000       15.9994           0
     35058 TIP3     5908     TIP3     H1       HT       0.417000       1.00800           0
     35059 TIP3     5908     TIP3     H2       HT       0.417000       1.00800           0
     35060 TIP3     5909     TIP3     OH2      OT      -0.834000       15.9994           0
     35061 TIP3     5909     TIP3     H1       HT       0.417000       1.00800           0
     35062 TIP3     5909     TIP3     H2       HT       0.417000       1.00800           0
     35063 TIP3     5910     TIP3     OH2      OT      -0.834000       15.9994           0
     35064 TIP3     5910     TIP3     H1       HT       0.417000       1.00800           0
     35065 TIP3     5910     TIP3     H2       HT       0.417000       1.00800           0
     35066 TIP3     5911     TIP3     OH2      OT      -0.834000       15.9994           0
     35067 TIP3     5911     TIP3     H1       HT       0.417000       1.00800           0
     35068 TIP3     5911     TIP3     H2       HT       0.417000       1.00800           0
     35069 TIP3     5912     TIP3     OH2      OT      -0.834000       15.9994           0
     35070 TIP3     5912     TIP3     H1       HT       0.417000       1.00800           0
     35071 TIP3     5912     TIP3     H2       HT       0.417000       1.00800           0
     35072 TIP3     5913     TIP3     OH2      OT      -0.834000       15.9994           0
     35073 TIP3     5913     TIP3     H1       HT       0.417000       1.00800           0
     35074 TIP3     5913     TIP3     H2       HT       0.417000       1.00800           0
     35075 TIP3     5914     TIP3     OH2      OT      -0.834000       15.9994           0
     35076 TIP3     5914     TIP3     H1       HT       0.417000       1.00800           0
     35077 TIP3     5914     TIP3     H2       HT       0.417000       1.00800           0
     35078 TIP3     5915     TIP3     OH2      OT      -0.834000       15.9994           0
     35079 TIP3     5915     TIP3     H1       HT       0.417000       1.00800           0
     35080 TIP3     5915     TIP3     H2       HT       0.417000       1.00800           0
     35081 TIP3     5916     TIP3     OH2      OT      -0.834000       15.9994           0
     35082 TIP3     5916     TIP3     H1       HT       0.417000       1.00800           0
     35083 TIP3     5916     TIP3     H2       HT       0.417000       1.00800           0
     35084 TIP3     5917     TIP3     OH2      OT      -0.834000       15.9994           0
     35085 TIP3     5917     TIP3     H1       HT       0.417000       1.00800           0
     35086 TIP3     5917     TIP3     H2       HT       0.417000       1.00800           0
     35087 TIP3     5918     TIP3     OH2      OT      -0.834000       15.9994           0
     35088 TIP3     5918     TIP3     H1       HT       0.417000       1.00800           0
     35089 TIP3     5918     TIP3     H2       HT       0.417000       1.00800           0
     35090 TIP3     5919     TIP3     OH2      OT      -0.834000       15.9994           0
     35091 TIP3     5919     TIP3     H1       HT       0.417000       1.00800           0
     35092 TIP3     5919     TIP3     H2       HT       0.417000       1.00800           0
     35093 TIP3     5920     TIP3     OH2      OT      -0.834000       15.9994           0
     35094 TIP3     5920     TIP3     H1       HT       0.417000       1.00800           0
     35095 TIP3     5920     TIP3     H2       HT       0.417000       1.00800           0
     35096 TIP3     5921     TIP3     OH2      OT      -0.834000       15.9994           0
     35097 TIP3     5921     TIP3     H1       HT       0.417000       1.00800           0
     35098 TIP3     5921     TIP3     H2       HT       0.417000       1.00800           0
     35099 TIP3     5922     TIP3     OH2      OT      -0.834000       15.9994           0
     35100 TIP3     5922     TIP3     H1       HT       0.417000       1.00800           0
     35101 TIP3     5922     TIP3     H2       HT       0.417000       1.00800           0
     35102 TIP3     5923     TIP3     OH2      OT      -0.834000       15.9994           0
     35103 TIP3     5923     TIP3     H1       HT       0.417000       1.00800           0
     35104 TIP3     5923     TIP3     H2       HT       0.417000       1.00800           0
     35105 TIP3     5924     TIP3     OH2      OT      -0.834000       15.9994           0
     35106 TIP3     5924     TIP3     H1       HT       0.417000       1.00800           0
     35107 TIP3     5924     TIP3     H2       HT       0.417000       1.00800           0
     35108 TIP3     5925     TIP3     OH2      OT      -0.834000       15.9994           0
     35109 TIP3     5925     TIP3     H1       HT       0.417000       1.00800           0
     35110 TIP3     5925     TIP3     H2       HT       0.417000       1.00800           0
     35111 TIP3     5926     TIP3     OH2      OT      -0.834000       15.9994           0
     35112 TIP3     5926     TIP3     H1       HT       0.417000       1.00800           0
     35113 TIP3     5926     TIP3     H2       HT       0.417000       1.00800           0
     35114 TIP3     5927     TIP3     OH2      OT      -0.834000       15.9994           0
     35115 TIP3     5927     TIP3     H1       HT       0.417000       1.00800           0
     35116 TIP3     5927     TIP3     H2       HT       0.417000       1.00800           0
     35117 TIP3     5928     TIP3     OH2      OT      -0.834000       15.9994           0
     35118 TIP3     5928     TIP3     H1       HT       0.417000       1.00800           0
     35119 TIP3     5928     TIP3     H2       HT       0.417000       1.00800           0
     35120 TIP3     5929     TIP3     OH2      OT      -0.834000       15.9994           0
     35121 TIP3     5929     TIP3     H1       HT       0.417000       1.00800           0
     35122 TIP3     5929     TIP3     H2       HT       0.417000       1.00800           0
     35123 TIP3     5930     TIP3     OH2      OT      -0.834000       15.9994           0
     35124 TIP3     5930     TIP3     H1       HT       0.417000       1.00800           0
     35125 TIP3     5930     TIP3     H2       HT       0.417000       1.00800           0
     35126 TIP3     5931     TIP3     OH2      OT      -0.834000       15.9994           0
     35127 TIP3     5931     TIP3     H1       HT       0.417000       1.00800           0
     35128 TIP3     5931     TIP3     H2       HT       0.417000       1.00800           0
     35129 TIP3     5932     TIP3     OH2      OT      -0.834000       15.9994           0
     35130 TIP3     5932     TIP3     H1       HT       0.417000       1.00800           0
     35131 TIP3     5932     TIP3     H2       HT       0.417000       1.00800           0
     35132 TIP3     5933     TIP3     OH2      OT      -0.834000       15.9994           0
     35133 TIP3     5933     TIP3     H1       HT       0.417000       1.00800           0
     35134 TIP3     5933     TIP3     H2       HT       0.417000       1.00800           0
     35135 TIP3     5934     TIP3     OH2      OT      -0.834000       15.9994           0
     35136 TIP3     5934     TIP3     H1       HT       0.417000       1.00800           0
     35137 TIP3     5934     TIP3     H2       HT       0.417000       1.00800           0
     35138 TIP3     5935     TIP3     OH2      OT      -0.834000       15.9994           0
     35139 TIP3     5935     TIP3     H1       HT       0.417000       1.00800           0
     35140 TIP3     5935     TIP3     H2       HT       0.417000       1.00800           0
     35141 TIP3     5936     TIP3     OH2      OT      -0.834000       15.9994           0
     35142 TIP3     5936     TIP3     H1       HT       0.417000       1.00800           0
     35143 TIP3     5936     TIP3     H2       HT       0.417000       1.00800           0
     35144 TIP3     5937     TIP3     OH2      OT      -0.834000       15.9994           0
     35145 TIP3     5937     TIP3     H1       HT       0.417000       1.00800           0
     35146 TIP3     5937     TIP3     H2       HT       0.417000       1.00800           0
     35147 TIP3     5938     TIP3     OH2      OT      -0.834000       15.9994           0
     35148 TIP3     5938     TIP3     H1       HT       0.417000       1.00800           0
     35149 TIP3     5938     TIP3     H2       HT       0.417000       1.00800           0
     35150 TIP3     5939     TIP3     OH2      OT      -0.834000       15.9994           0
     35151 TIP3     5939     TIP3     H1       HT       0.417000       1.00800           0
     35152 TIP3     5939     TIP3     H2       HT       0.417000       1.00800           0
     35153 TIP3     5940     TIP3     OH2      OT      -0.834000       15.9994           0
     35154 TIP3     5940     TIP3     H1       HT       0.417000       1.00800           0
     35155 TIP3     5940     TIP3     H2       HT       0.417000       1.00800           0
     35156 TIP3     5941     TIP3     OH2      OT      -0.834000       15.9994           0
     35157 TIP3     5941     TIP3     H1       HT       0.417000       1.00800           0
     35158 TIP3     5941     TIP3     H2       HT       0.417000       1.00800           0
     35159 TIP3     5942     TIP3     OH2      OT      -0.834000       15.9994           0
     35160 TIP3     5942     TIP3     H1       HT       0.417000       1.00800           0
     35161 TIP3     5942     TIP3     H2       HT       0.417000       1.00800           0
     35162 TIP3     5943     TIP3     OH2      OT      -0.834000       15.9994           0
     35163 TIP3     5943     TIP3     H1       HT       0.417000       1.00800           0
     35164 TIP3     5943     TIP3     H2       HT       0.417000       1.00800           0
     35165 TIP3     5944     TIP3     OH2      OT      -0.834000       15.9994           0
     35166 TIP3     5944     TIP3     H1       HT       0.417000       1.00800           0
     35167 TIP3     5944     TIP3     H2       HT       0.417000       1.00800           0
     35168 TIP3     5945     TIP3     OH2      OT      -0.834000       15.9994           0
     35169 TIP3     5945     TIP3     H1       HT       0.417000       1.00800           0
     35170 TIP3     5945     TIP3     H2       HT       0.417000       1.00800           0
     35171 TIP3     5946     TIP3     OH2      OT      -0.834000       15.9994           0
     35172 TIP3     5946     TIP3     H1       HT       0.417000       1.00800           0
     35173 TIP3     5946     TIP3     H2       HT       0.417000       1.00800           0
     35174 TIP3     5947     TIP3     OH2      OT      -0.834000       15.9994           0
     35175 TIP3     5947     TIP3     H1       HT       0.417000       1.00800           0
     35176 TIP3     5947     TIP3     H2       HT       0.417000       1.00800           0
     35177 TIP3     5948     TIP3     OH2      OT      -0.834000       15.9994           0
     35178 TIP3     5948     TIP3     H1       HT       0.417000       1.00800           0
     35179 TIP3     5948     TIP3     H2       HT       0.417000       1.00800           0
     35180 TIP3     5949     TIP3     OH2      OT      -0.834000       15.9994           0
     35181 TIP3     5949     TIP3     H1       HT       0.417000       1.00800           0
     35182 TIP3     5949     TIP3     H2       HT       0.417000       1.00800           0
     35183 TIP3     5950     TIP3     OH2      OT      -0.834000       15.9994           0
     35184 TIP3     5950     TIP3     H1       HT       0.417000       1.00800           0
     35185 TIP3     5950     TIP3     H2       HT       0.417000       1.00800           0
     35186 TIP3     5951     TIP3     OH2      OT      -0.834000       15.9994           0
     35187 TIP3     5951     TIP3     H1       HT       0.417000       1.00800           0
     35188 TIP3     5951     TIP3     H2       HT       0.417000       1.00800           0
     35189 TIP3     5952     TIP3     OH2      OT      -0.834000       15.9994           0
     35190 TIP3     5952     TIP3     H1       HT       0.417000       1.00800           0
     35191 TIP3     5952     TIP3     H2       HT       0.417000       1.00800           0
     35192 TIP3     5953     TIP3     OH2      OT      -0.834000       15.9994           0
     35193 TIP3     5953     TIP3     H1       HT       0.417000       1.00800           0
     35194 TIP3     5953     TIP3     H2       HT       0.417000       1.00800           0
     35195 TIP3     5954     TIP3     OH2      OT      -0.834000       15.9994           0
     35196 TIP3     5954     TIP3     H1       HT       0.417000       1.00800           0
     35197 TIP3     5954     TIP3     H2       HT       0.417000       1.00800           0
     35198 TIP3     5955     TIP3     OH2      OT      -0.834000       15.9994           0
     35199 TIP3     5955     TIP3     H1       HT       0.417000       1.00800           0
     35200 TIP3     5955     TIP3     H2       HT       0.417000       1.00800           0
     35201 IONS     1        POT      POT      POT       1.00000       39.0983           0
     35202 IONS     2        POT      POT      POT       1.00000       39.0983           0
     35203 IONS     3        POT      POT      POT       1.00000       39.0983           0
     35204 IONS     4        POT      POT      POT       1.00000       39.0983           0
     35205 IONS     5        POT      POT      POT       1.00000       39.0983           0
     35206 IONS     6        POT      POT      POT       1.00000       39.0983           0
     35207 IONS     7        POT      POT      POT       1.00000       39.0983           0
     35208 IONS     8        POT      POT      POT       1.00000       39.0983           0
     35209 IONS     9        POT      POT      POT       1.00000       39.0983           0
     35210 IONS     10       POT      POT      POT       1.00000       39.0983           0
     35211 IONS     11       POT      POT      POT       1.00000       39.0983           0
     35212 IONS     12       POT      POT      POT       1.00000       39.0983           0
     35213 IONS     13       POT      POT      POT       1.00000       39.0983           0
     35214 IONS     14       POT      POT      POT       1.00000       39.0983           0
     35215 IONS     15       POT      POT      POT       1.00000       39.0983           0
     35216 IONS     16       POT      POT      POT       1.00000       39.0983           0
     35217 IONS     17       POT      POT      POT       1.00000       39.0983           0
     35218 IONS     18       POT      POT      POT       1.00000       39.0983           0
     35219 IONS     19       POT      POT      POT       1.00000       39.0983           0
     35220 IONS     20       POT      POT      POT       1.00000       39.0983           0
     35221 IONS     21       POT      POT      POT       1.00000       39.0983           0
     35222 IONS     22       POT      POT      POT       1.00000       39.0983           0
     35223 IONS     23       POT      POT      POT       1.00000       39.0983           0
     35224 IONS     24       POT      POT      POT       1.00000       39.0983           0
     35225 IONS     25       POT      POT      POT       1.00000       39.0983           0
     35226 IONS     26       POT      POT      POT       1.00000       39.0983           0
     35227 IONS     27       POT      POT      POT       1.00000       39.0983           0
     35228 IONS     28       POT      POT      POT       1.00000       39.0983           0
     35229 IONS     29       POT      POT      POT       1.00000       39.0983           0
     35230 IONS     30       POT      POT      POT       1.00000       39.0983           0
     35231 IONS     31       POT      POT      POT       1.00000       39.0983           0
     35232 IONS     32       POT      POT      POT       1.00000       39.0983           0
     35233 IONS     33       POT      POT      POT       1.00000       39.0983           0
     35234 IONS     34       POT      POT      POT       1.00000       39.0983           0
     35235 IONS     35       POT      POT      POT       1.00000       39.0983           0
     35236 IONS     36       POT      POT      POT       1.00000       39.0983           0
     35237 IONS     37       POT      POT      POT       1.00000       39.0983           0
     35238 IONS     38       POT      POT      POT       1.00000       39.0983           0
     35239 IONS     39       POT      POT      POT       1.00000       39.0983           0
     35240 IONS     40       CLA      CLA      CLA      -1.00000       35.4500           0
     35241 IONS     41       CLA      CLA      CLA      -1.00000       35.4500           0
     35242 IONS     42       CLA      CLA      CLA      -1.00000       35.4500           0
     35243 IONS     43       CLA      CLA      CLA      -1.00000       35.4500           0
     35244 IONS     44       CLA      CLA      CLA      -1.00000       35.4500           0
     35245 IONS     45       CLA      CLA      CLA      -1.00000       35.4500           0
     35246 IONS     46       CLA      CLA      CLA      -1.00000       35.4500           0
     35247 IONS     47       CLA      CLA      CLA      -1.00000       35.4500           0
     35248 IONS     48       CLA      CLA      CLA      -1.00000       35.4500           0
     35249 IONS     49       CLA      CLA      CLA      -1.00000       35.4500           0
     35250 IONS     50       CLA      CLA      CLA      -1.00000       35.4500           0
     35251 IONS     51       CLA      CLA      CLA      -1.00000       35.4500           0
     35252 IONS     52       CLA      CLA      CLA      -1.00000       35.4500           0
     35253 IONS     53       CLA      CLA      CLA      -1.00000       35.4500           0

     35071 !NBOND: bonds
         2         1         3         1         4         1         7         5
        10         7        12        10         1         5        15         5
        15        17         5         6         7         8         7         9
        12        13        12        14        15        16        10        11
        21        19        24        21        26        24        17        18
        17        19        29        19        29        31        19        20
        21        22        21        23        26        27        26        28
        29        30        24        25        35        33        38        35
        41        38        44        41        46        44        50        46
        31        32        31        33        53        33        53        55
        33        34        35        36        35        37        38        39
        38        40        41        42        41        43        44        45
        47        48        47        49        50        51        50        52
        54        53        46        47        67        59        67        69
        55        59        59        61        61        64        64        56
        55        56        60        59        65        64        66        64
        57        56        58        56        62        61        63        61
        68        67        73        71        76        73        78        76
        69        70        69        71        81        71        81        83
        71        72        73        74        73        75        78        79
        78        80        81        82        76        77        95        87
        83        87        87        89        89        92        92        84
        83        84        88        87        93        92        94        92
        85        84        86        84        90        89        91        89
        95        97        95        96        98       102        98       106
        98       110       102       103       102       104       102       105
       106       107       106       108       106       109       110       111
       110       112       110       113        98        99        99       100
        99       101        99       114       114       115       114       116
       114       120       121       122       120       117       117       121
       117       118       117       119       122       123       122       124
       122       125       125       126       125       133       125       127
       133       134       133       135       133       136       127       128
       128       130       128       129       130       131       130       132
       130       142       142       143       142       144       142       145
       145       146       145       147       145       148       148       149
       148       150       148       151       151       152       151       153
       151       154       154       155       154       156       154       157
       157       158       157       159       157       160       160       161
       160       162       162       163       162       164       164       165
       164       166       164       167       167       168       167       169
       167       170       170       171       170       172       170       173
       173       174       173       175       173       176       176       177
       176       178       176       179       179       180       179       181
       179       182       182       183       182       184       182       185
       185       186       185       187       185       188       136       137
       137       139       137       138       139       140       139       141
       139       189       189       190       189       191       189       192
       192       193       192       194       192       195       195       196
       195       197       195       198       198       199       198       200
       198       201       201       202       201       203       201       204
       204       205       204       206       204       207       207       208
       207       209       207       210       210       211       210       212
       210       213       213       214       213       215       213       216
       216       217       216       218       216       219       219       220
       219       221       219       222       222       223       222       224
       222       225       225       226       225       227       225       228
       228       229       228       230       228       231       232       236
       232       240       232       244       236       237       236       238
       236       239       240       241       240       242       240       243
       244       245       244       246       244       247       232       233
       233       234       233       235       233       248       248       249
       248       250       248       254       255       256       254       251
       251       255       251       252       251       253       256       257
       256       258       256       259       259       260       259       267
       259       261       267       268       267       269       267       270
       261       262       262       264       262       263       264       265
       264       266       264       276       276       277       276       278
       276       279       279       280       279       281       279       282
       282       283       282       284       282       285       285       286
       285       287       285       288       288       289       288       290
       288       291       291       292       291       293       291       294
       294       295       294       296       296       297       296       298
       298       299       298       300       298       301       301       302
       301       303       301       304       304       305       304       306
       304       307       307       308       307       309       307       310
       310       311       310       312       310       313       313       314
       313       315       313       316       316       317       316       318
       316       319       319       320       319       321       319       322
       270       271       271       273       271       272       273       274
       273       275       273       323       323       324       323       325
       323       326       326       327       326       328       326       329
       329       330       329       331       329       332       332       333
       332       334       332       335       335       336       335       337
       335       338       338       339       338       340       338       341
       341       342       341       343       341       344       344       345
       344       346       344       347       347       348       347       349
       347       350       350       351       350       352       350       353
       353       354       353       355       353       356       356       357
       356       358       356       359       359       360       359       361
       359       362       362       363       362       364       362       365
       366       370       366       374       366       378       370       371
       370       372       370       373       374       375       374       376
       374       377       378       379       378       380       378       381
       366       367       367       368       367       369       367       382
       382       383       382       384       382       388       389       390
       388       385       385       389       385       386       385       387
       390       391       390       392       390       393       393       394
       393       401       393       395       401       402       401       403
       401       404       395       396       396       398       396       397
       398       399       398       400       398       410       410       411
       410       412       410       413       413       414       413       415
       413       416       416       417       416       418       416       419
       419       420       419       421       419       422       422       423
       422       424       422       425       425       426       425       427
       425       428       428       429       428       430       430       431
       430       432       432       433       432       434       432       435
       435       436       435       437       435       438       438       439
       438       440       438       441       441       442       441       443
       441       444       444       445       444       446       444       447
       447       448       447       449       447       450       450       451
       450       452       450       453       453       454       453       455
       453       456       404       405       405       407       405       406
       407       408       407       409       407       457       457       458
       457       459       457       460       460       461       460       462
       460       463       463       464       463       465       463       466
       466       467       466       468       466       469       469       470
       469       471       469       472       472       473       472       474
       472       475       475       476       475       477       475       478
       478       479       478       480       478       481       481       482
       481       483       481       484       484       485       484       486
       484       487       487       488       487       489       487       490
       490       491       490       492       490       493       493       494
       493       495       493       496       496       497       496       498
       496       499       500       504       500       508       500       512
       504       505       504       506       504       507       508       509
       508       510       508       511       512       513       512       514
       512       515       500       501       501       502       501       503
       501       516       516       517       516       518       516       522
       523       524       522       519       519       523       519       520
       519       521       524       525       524       526       524       527
       527       528       527       535       527       529       535       536
       535       537       535       538       529       530       530       532
       530       531       532       533       532       534       532       544
       544       545       544       546       544       547       547       548
       547       549       547       550       550       551       550       552
       550       553       553       554       553       555       553       556
       556       557       556       558       556       559       559       560
       559       561       559       562       562       563       562       564
       564       565       564       566       566       567       566       568
       566       569       569       570       569       571       569       572
       572       573       572       574       572       575       575       576
       575       577       575       578       578       579       578       580
       578       581       581       582       581       583       581       584
       584       585       584       586       584       587       587       588
       587       589       587       590       538       539       539       541
       539       540       541       542       541       543       541       591
       591       592       591       593       591       594       594       595
       594       596       594       597       597       598       597       599
       597       600       600       601       600       602       600       603
       603       604       603       605       603       606       606       607
       606       608       606       609       609       610       609       611
       609       612       612       613       612       614       612       615
       615       616       615       617       615       618       618       619
       618       620       618       621       621       622       621       623
       621       624       624       625       624       626       624       627
       627       628       627       629       627       630       630       631
       630       632       630       633       634       638       634       642
       634       646       638       639       638       640       638       641
       642       643       642       644       642       645       646       647
       646       648       646       649       634       635       635       636
       635       637       635       650       650       651       650       652
       650       656       657       658       656       653       653       657
       653       654       653       655       658       659       658       660
       658       661       661       662       661       669       661       663
       669       670       669       671       669       672       663       664
       664       666       664       665       666       667       666       668
       666       678       678       679       678       680       678       681
       681       682       681       683       681       684       684       685
       684       686       684       687       687       688       687       689
       687       690       690       691       690       692       690       693
       693       694       693       695       693       696       696       697
       696       698       698       699       698       700       700       701
       700       702       700       703       703       704       703       705
       703       706       706       707       706       708       706       709
       709       710       709       711       709       712       712       713
       712       714       712       715       715       716       715       717
       715       718       718       719       718       720       718       721
       721       722       721       723       721       724       672       673
       673       675       673       674       675       676       675       677
       675       725       725       726       725       727       725       728
       728       729       728       730       728       731       731       732
       731       733       731       734       734       735       734       736
       734       737       737       738       737       739       737       740
       740       741       740       742       740       743       743       744
       743       745       743       746       746       747       746       748
       746       749       749       750       749       751       749       752
       752       753       752       754       752       755       755       756
       755       757       755       758       758       759       758       760
       758       761       761       762       761       763       761       764
       764       765       764       766       764       767       768       772
       768       776       768       780       772       773       772       774
       772       775       776       777       776       778       776       779
       780       781       780       782       780       783       768       769
       769       770       769       771       769       784       784       785
       784       786       784       790       791       792       790       787
       787       791       787       788       787       789       792       793
       792       794       792       795       795       796       795       803
       795       797       803       804       803       805       803       806
       797       798       798       800       798       799       800       801
       800       802       800       812       812       813       812       814
       812       815       815       816       815       817       815       818
       818       819       818       820       818       821       821       822
       821       823       821       824       824       825       824       826
       824       827       827       828       827       829       827       830
       830       831       830       832       832       833       832       834
       834       835       834       836       834       837       837       838
       837       839       837       840       840       841       840       842
       840       843       843       844       843       845       843       846
       846       847       846       848       846       849       849       850
       849       851       849       852       852       853       852       854
       852       855       855       856       855       857       855       858
       806       807       807       809       807       808       809       810
       809       811       809       859       859       860       859       861
       859       862       862       863       862       864       862       865
       865       866       865       867       865       868       868       869
       868       870       868       871       871       872       871       873
       871       874       874       875       874       876       874       877
       877       878       877       879       877       880       880       881
       880       882       880       883       883       884       883       885
       883       886       886       887       886       888       886       889
       889       890       889       891       889       892       892       893
       892       894       892       895       895       896       895       897
       895       898       898       899       898       900       898       901
       902       903       902       904       902       905       902       906
       910       908       908       906       908       909       906       907
       906       911       919       918       911       912       911       913
       911       917       917       914       914       918       914       915
       914       916       919       920       919       921       919       922
       922       923       922       930       922       924       930       931
       930       932       930       933       924       925       925       927
       925       926       927       928       927       929       927       939
       939       940       939       941       939       942       942       943
       942       944       942       945       945       946       945       947
       945       948       948       949       948       950       948       951
       951       952       951       953       951       954       954       955
       954       956       954       957       957       958       957       959
       959       960       959       961       961       962       961       963
       961       964       964       965       964       966       964       967
       967       968       967       969       967       970       970       971
       970       972       970       973       973       974       973       975
       973       976       976       977       976       978       976       979
       979       980       979       981       979       982       982       983
       982       984       982       985       933       934       934       936
       934       935       936       937       936       938       936       986
       986       987       986       988       986       989       989       990
       989       991       989       992       992       993       992       994
       992       995       995       996       995       997       995       998
       998       999       998      1000       998      1001      1001      1002
      1001      1003      1001      1004      1004      1005      1004      1006
      1004      1007      1007      1008      1007      1009      1007      1010
      1010      1011      1010      1012      1010      1013      1013      1014
      1013      1015      1013      1016      1016      1017      1016      1018
      1016      1019      1019      1020      1019      1021      1019      1022
      1022      1023      1022      1024      1022      1025      1025      1026
      1025      1027      1025      1028      1029      1033      1029      1037
      1029      1041      1033      1034      1033      1035      1033      1036
      1037      1038      1037      1039      1037      1040      1041      1042
      1041      1043      1041      1044      1029      1030      1030      1031
      1030      1032      1030      1045      1045      1046      1045      1047
      1045      1051      1052      1053      1051      1048      1048      1052
      1048      1049      1048      1050      1053      1054      1053      1055
      1053      1056      1056      1057      1056      1064      1056      1058
      1064      1065      1064      1066      1064      1067      1058      1059
      1059      1061      1059      1060      1061      1062      1061      1063
      1061      1073      1073      1074      1073      1075      1073      1076
      1076      1077      1076      1078      1076      1079      1079      1080
      1079      1081      1079      1082      1082      1083      1082      1084
      1082      1085      1085      1086      1085      1087      1085      1088
      1088      1089      1088      1090      1088      1091      1091      1092
      1091      1093      1093      1094      1093      1095      1095      1096
      1095      1097      1095      1098      1098      1099      1098      1100
      1098      1101      1101      1102      1101      1103      1101      1104
      1104      1105      1104      1106      1104      1107      1107      1108
      1107      1109      1107      1110      1110      1111      1110      1112
      1110      1113      1113      1114      1113      1115      1113      1116
      1116      1117      1116      1118      1116      1119      1067      1068
      1068      1070      1068      1069      1070      1071      1070      1072
      1070      1120      1120      1121      1120      1122      1120      1123
      1123      1124      1123      1125      1123      1126      1126      1127
      1126      1128      1126      1129      1129      1130      1129      1131
      1129      1132      1132      1133      1132      1134      1132      1135
      1135      1136      1135      1137      1135      1138      1138      1139
      1138      1140      1138      1141      1141      1142      1141      1143
      1141      1144      1144      1145      1144      1146      1144      1147
      1147      1148      1147      1149      1147      1150      1150      1151
      1150      1152      1150      1153      1153      1154      1153      1155
      1153      1156      1156      1157      1156      1158      1156      1159
      1159      1160      1159      1161      1159      1162      1163      1167
      1163      1171      1163      1175      1167      1168      1167      1169
      1167      1170      1171      1172      1171      1173      1171      1174
      1175      1176      1175      1177      1175      1178      1163      1164
      1164      1165      1164      1166      1164      1179      1179      1180
      1179      1181      1179      1185      1186      1187      1185      1182
      1182      1186      1182      1183      1182      1184      1187      1188
      1187      1189      1187      1190      1190      1191      1190      1198
      1190      1192      1198      1199      1198      1200      1198      1201
      1192      1193      1193      1195      1193      1194      1195      1196
      1195      1197      1195      1207      1207      1208      1207      1209
      1207      1210      1210      1211      1210      1212      1210      1213
      1213      1214      1213      1215      1213      1216      1216      1217
      1216      1218      1216      1219      1219      1220      1219      1221
      1219      1222      1222      1223      1222      1224      1222      1225
      1225      1226      1225      1227      1227      1228      1227      1229
      1229      1230      1229      1231      1229      1232      1232      1233
      1232      1234      1232      1235      1235      1236      1235      1237
      1235      1238      1238      1239      1238      1240      1238      1241
      1241      1242      1241      1243      1241      1244      1244      1245
      1244      1246      1244      1247      1247      1248      1247      1249
      1247      1250      1250      1251      1250      1252      1250      1253
      1201      1202      1202      1204      1202      1203      1204      1205
      1204      1206      1204      1254      1254      1255      1254      1256
      1254      1257      1257      1258      1257      1259      1257      1260
      1260      1261      1260      1262      1260      1263      1263      1264
      1263      1265      1263      1266      1266      1267      1266      1268
      1266      1269      1269      1270      1269      1271      1269      1272
      1272      1273      1272      1274      1272      1275      1275      1276
      1275      1277      1275      1278      1278      1279      1278      1280
      1278      1281      1281      1282      1281      1283      1281      1284
      1284      1285      1284      1286      1284      1287      1287      1288
      1287      1289      1287      1290      1290      1291      1290      1292
      1290      1293      1293      1294      1293      1295      1293      1296
      1297      1298      1297      1299      1297      1300      1297      1301
      1305      1303      1303      1301      1303      1304      1301      1302
      1301      1306      1314      1313      1306      1307      1306      1308
      1306      1312      1312      1309      1309      1313      1309      1310
      1309      1311      1314      1315      1314      1316      1314      1317
      1317      1318      1317      1325      1317      1319      1325      1326
      1325      1327      1325      1328      1319      1320      1320      1322
      1320      1321      1322      1323      1322      1324      1322      1334
      1334      1335      1334      1336      1334      1337      1337      1338
      1337      1339      1337      1340      1340      1341      1340      1342
      1340      1343      1343      1344      1343      1345      1343      1346
      1346      1347      1346      1348      1346      1349      1349      1350
      1349      1351      1349      1352      1352      1353      1352      1354
      1354      1355      1354      1356      1356      1357      1356      1358
      1356      1359      1359      1360      1359      1361      1359      1362
      1362      1363      1362      1364      1362      1365      1365      1366
      1365      1367      1365      1368      1368      1369      1368      1370
      1368      1371      1371      1372      1371      1373      1371      1374
      1374      1375      1374      1376      1374      1377      1377      1378
      1377      1379      1377      1380      1328      1329      1329      1331
      1329      1330      1331      1332      1331      1333      1331      1381
      1381      1382      1381      1383      1381      1384      1384      1385
      1384      1386      1384      1387      1387      1388      1387      1389
      1387      1390      1390      1391      1390      1392      1390      1393
      1393      1394      1393      1395      1393      1396      1396      1397
      1396      1398      1396      1399      1399      1400      1399      1401
      1399      1402      1402      1403      1402      1404      1402      1405
      1405      1406      1405      1407      1405      1408      1408      1409
      1408      1410      1408      1411      1411      1412      1411      1413
      1411      1414      1414      1415      1414      1416      1414      1417
      1417      1418      1417      1419      1417      1420      1420      1421
      1420      1422      1420      1423      1424      1425      1424      1426
      1424      1427      1424      1428      1432      1430      1430      1428
      1430      1431      1428      1429      1428      1433      1441      1440
      1433      1434      1433      1435      1433      1439      1439      1436
      1436      1440      1436      1437      1436      1438      1441      1442
      1441      1443      1441      1444      1444      1445      1444      1452
      1444      1446      1452      1453      1452      1454      1452      1455
      1446      1447      1447      1449      1447      1448      1449      1450
      1449      1451      1449      1461      1461      1462      1461      1463
      1461      1464      1464      1465      1464      1466      1464      1467
      1467      1468      1467      1469      1467      1470      1470      1471
      1470      1472      1470      1473      1473      1474      1473      1475
      1473      1476      1476      1477      1476      1478      1476      1479
      1479      1480      1479      1481      1481      1482      1481      1483
      1483      1484      1483      1485      1483      1486      1486      1487
      1486      1488      1486      1489      1489      1490      1489      1491
      1489      1492      1492      1493      1492      1494      1492      1495
      1495      1496      1495      1497      1495      1498      1498      1499
      1498      1500      1498      1501      1501      1502      1501      1503
      1501      1504      1504      1505      1504      1506      1504      1507
      1455      1456      1456      1458      1456      1457      1458      1459
      1458      1460      1458      1508      1508      1509      1508      1510
      1508      1511      1511      1512      1511      1513      1511      1514
      1514      1515      1514      1516      1514      1517      1517      1518
      1517      1519      1517      1520      1520      1521      1520      1522
      1520      1523      1523      1524      1523      1525      1523      1526
      1526      1527      1526      1528      1526      1529      1529      1530
      1529      1531      1529      1532      1532      1533      1532      1534
      1532      1535      1535      1536      1535      1537      1535      1538
      1538      1539      1538      1540      1538      1541      1541      1542
      1541      1543      1541      1544      1544      1545      1544      1546
      1544      1547      1547      1548      1547      1549      1547      1550
      1551      1555      1551      1559      1551      1563      1555      1556
      1555      1557      1555      1558      1559      1560      1559      1561
      1559      1562      1563      1564      1563      1565      1563      1566
      1551      1552      1552      1553      1552      1554      1552      1567
      1567      1568      1567      1569      1567      1573      1574      1575
      1573      1570      1570      1574      1570      1571      1570      1572
      1575      1576      1575      1577      1575      1578      1578      1579
      1578      1586      1578      1580      1586      1587      1586      1588
      1586      1589      1580      1581      1581      1583      1581      1582
      1583      1584      1583      1585      1583      1595      1595      1596
      1595      1597      1595      1598      1598      1599      1598      1600
      1598      1601      1601      1602      1601      1603      1601      1604
      1604      1605      1604      1606      1604      1607      1607      1608
      1607      1609      1607      1610      1610      1611      1610      1612
      1610      1613      1613      1614      1613      1615      1615      1616
      1615      1617      1617      1618      1617      1619      1617      1620
      1620      1621      1620      1622      1620      1623      1623      1624
      1623      1625      1623      1626      1626      1627      1626      1628
      1626      1629      1629      1630      1629      1631      1629      1632
      1632      1633      1632      1634      1632      1635      1635      1636
      1635      1637      1635      1638      1638      1639      1638      1640
      1638      1641      1589      1590      1590      1592      1590      1591
      1592      1593      1592      1594      1592      1642      1642      1643
      1642      1644      1642      1645      1645      1646      1645      1647
      1645      1648      1648      1649      1648      1650      1648      1651
      1651      1652      1651      1653      1651      1654      1654      1655
      1654      1656      1654      1657      1657      1658      1657      1659
      1657      1660      1660      1661      1660      1662      1660      1663
      1663      1664      1663      1665      1663      1666      1666      1667
      1666      1668      1666      1669      1669      1670      1669      1671
      1669      1672      1672      1673      1672      1674      1672      1675
      1675      1676      1675      1677      1675      1678      1678      1679
      1678      1680      1678      1681      1681      1682      1681      1683
      1681      1684      1685      1686      1685      1687      1685      1688
      1685      1689      1693      1691      1691      1689      1691      1692
      1689      1690      1689      1694      1702      1701      1694      1695
      1694      1696      1694      1700      1700      1697      1697      1701
      1697      1698      1697      1699      1702      1703      1702      1704
      1702      1705      1705      1706      1705      1713      1705      1707
      1713      1714      1713      1715      1713      1716      1707      1708
      1708      1710      1708      1709      1710      1711      1710      1712
      1710      1722      1722      1723      1722      1724      1722      1725
      1725      1726      1725      1727      1725      1728      1728      1729
      1728      1730      1728      1731      1731      1732      1731      1733
      1731      1734      1734      1735      1734      1736      1734      1737
      1737      1738      1737      1739      1737      1740      1740      1741
      1740      1742      1742      1743      1742      1744      1744      1745
      1744      1746      1744      1747      1747      1748      1747      1749
      1747      1750      1750      1751      1750      1752      1750      1753
      1753      1754      1753      1755      1753      1756      1756      1757
      1756      1758      1756      1759      1759      1760      1759      1761
      1759      1762      1762      1763      1762      1764      1762      1765
      1765      1766      1765      1767      1765      1768      1716      1717
      1717      1719      1717      1718      1719      1720      1719      1721
      1719      1769      1769      1770      1769      1771      1769      1772
      1772      1773      1772      1774      1772      1775      1775      1776
      1775      1777      1775      1778      1778      1779      1778      1780
      1778      1781      1781      1782      1781      1783      1781      1784
      1784      1785      1784      1786      1784      1787      1787      1788
      1787      1789      1787      1790      1790      1791      1790      1792
      1790      1793      1793      1794      1793      1795      1793      1796
      1796      1797      1796      1798      1796      1799      1799      1800
      1799      1801      1799      1802      1802      1803      1802      1804
      1802      1805      1805      1806      1805      1807      1805      1808
      1808      1809      1808      1810      1808      1811      1812      1816
      1812      1820      1812      1824      1816      1817      1816      1818
      1816      1819      1820      1821      1820      1822      1820      1823
      1824      1825      1824      1826      1824      1827      1812      1813
      1813      1814      1813      1815      1813      1828      1828      1829
      1828      1830      1828      1834      1835      1836      1834      1831
      1831      1835      1831      1832      1831      1833      1836      1837
      1836      1838      1836      1839      1839      1840      1839      1847
      1839      1841      1847      1848      1847      1849      1847      1850
      1841      1842      1842      1844      1842      1843      1844      1845
      1844      1846      1844      1856      1856      1857      1856      1858
      1856      1859      1859      1860      1859      1861      1859      1862
      1862      1863      1862      1864      1862      1865      1865      1866
      1865      1867      1865      1868      1868      1869      1868      1870
      1868      1871      1871      1872      1871      1873      1871      1874
      1874      1875      1874      1876      1876      1877      1876      1878
      1878      1879      1878      1880      1878      1881      1881      1882
      1881      1883      1881      1884      1884      1885      1884      1886
      1884      1887      1887      1888      1887      1889      1887      1890
      1890      1891      1890      1892      1890      1893      1893      1894
      1893      1895      1893      1896      1896      1897      1896      1898
      1896      1899      1899      1900      1899      1901      1899      1902
      1850      1851      1851      1853      1851      1852      1853      1854
      1853      1855      1853      1903      1903      1904      1903      1905
      1903      1906      1906      1907      1906      1908      1906      1909
      1909      1910      1909      1911      1909      1912      1912      1913
      1912      1914      1912      1915      1915      1916      1915      1917
      1915      1918      1918      1919      1918      1920      1918      1921
      1921      1922      1921      1923      1921      1924      1924      1925
      1924      1926      1924      1927      1927      1928      1927      1929
      1927      1930      1930      1931      1930      1932      1930      1933
      1933      1934      1933      1935      1933      1936      1936      1937
      1936      1938      1936      1939      1939      1940      1939      1941
      1939      1942      1942      1943      1942      1944      1942      1945
      1946      1950      1946      1954      1946      1958      1950      1951
      1950      1952      1950      1953      1954      1955      1954      1956
      1954      1957      1958      1959      1958      1960      1958      1961
      1946      1947      1947      1948      1947      1949      1947      1962
      1962      1963      1962      1964      1962      1968      1969      1970
      1968      1965      1965      1969      1965      1966      1965      1967
      1970      1971      1970      1972      1970      1973      1973      1974
      1973      1981      1973      1975      1981      1982      1981      1983
      1981      1984      1975      1976      1976      1978      1976      1977
      1978      1979      1978      1980      1978      1990      1990      1991
      1990      1992      1990      1993      1993      1994      1993      1995
      1993      1996      1996      1997      1996      1998      1996      1999
      1999      2000      1999      2001      1999      2002      2002      2003
      2002      2004      2002      2005      2005      2006      2005      2007
      2005      2008      2008      2009      2008      2010      2010      2011
      2010      2012      2012      2013      2012      2014      2012      2015
      2015      2016      2015      2017      2015      2018      2018      2019
      2018      2020      2018      2021      2021      2022      2021      2023
      2021      2024      2024      2025      2024      2026      2024      2027
      2027      2028      2027      2029      2027      2030      2030      2031
      2030      2032      2030      2033      2033      2034      2033      2035
      2033      2036      1984      1985      1985      1987      1985      1986
      1987      1988      1987      1989      1987      2037      2037      2038
      2037      2039      2037      2040      2040      2041      2040      2042
      2040      2043      2043      2044      2043      2045      2043      2046
      2046      2047      2046      2048      2046      2049      2049      2050
      2049      2051      2049      2052      2052      2053      2052      2054
      2052      2055      2055      2056      2055      2057      2055      2058
      2058      2059      2058      2060      2058      2061      2061      2062
      2061      2063      2061      2064      2064      2065      2064      2066
      2064      2067      2067      2068      2067      2069      2067      2070
      2070      2071      2070      2072      2070      2073      2073      2074
      2073      2075      2073      2076      2076      2077      2076      2078
      2076      2079      2080      2084      2080      2088      2080      2092
      2084      2085      2084      2086      2084      2087      2088      2089
      2088      2090      2088      2091      2092      2093      2092      2094
      2092      2095      2080      2081      2081      2082      2081      2083
      2081      2096      2096      2097      2096      2098      2096      2102
      2103      2104      2102      2099      2099      2103      2099      2100
      2099      2101      2104      2105      2104      2106      2104      2107
      2107      2108      2107      2115      2107      2109      2115      2116
      2115      2117      2115      2118      2109      2110      2110      2112
      2110      2111      2112      2113      2112      2114      2112      2124
      2124      2125      2124      2126      2124      2127      2127      2128
      2127      2129      2127      2130      2130      2131      2130      2132
      2130      2133      2133      2134      2133      2135      2133      2136
      2136      2137      2136      2138      2136      2139      2139      2140
      2139      2141      2139      2142      2142      2143      2142      2144
      2144      2145      2144      2146      2146      2147      2146      2148
      2146      2149      2149      2150      2149      2151      2149      2152
      2152      2153      2152      2154      2152      2155      2155      2156
      2155      2157      2155      2158      2158      2159      2158      2160
      2158      2161      2161      2162      2161      2163      2161      2164
      2164      2165      2164      2166      2164      2167      2167      2168
      2167      2169      2167      2170      2118      2119      2119      2121
      2119      2120      2121      2122      2121      2123      2121      2171
      2171      2172      2171      2173      2171      2174      2174      2175
      2174      2176      2174      2177      2177      2178      2177      2179
      2177      2180      2180      2181      2180      2182      2180      2183
      2183      2184      2183      2185      2183      2186      2186      2187
      2186      2188      2186      2189      2189      2190      2189      2191
      2189      2192      2192      2193      2192      2194      2192      2195
      2195      2196      2195      2197      2195      2198      2198      2199
      2198      2200      2198      2201      2201      2202      2201      2203
      2201      2204      2204      2205      2204      2206      2204      2207
      2207      2208      2207      2209      2207      2210      2210      2211
      2210      2212      2210      2213      2214      2218      2214      2222
      2214      2226      2218      2219      2218      2220      2218      2221
      2222      2223      2222      2224      2222      2225      2226      2227
      2226      2228      2226      2229      2214      2215      2215      2216
      2215      2217      2215      2230      2230      2231      2230      2232
      2230      2236      2237      2238      2236      2233      2233      2237
      2233      2234      2233      2235      2238      2239      2238      2240
      2238      2241      2241      2242      2241      2249      2241      2243
      2249      2250      2249      2251      2249      2252      2243      2244
      2244      2246      2244      2245      2246      2247      2246      2248
      2246      2258      2258      2259      2258      2260      2258      2261
      2261      2262      2261      2263      2261      2264      2264      2265
      2264      2266      2264      2267      2267      2268      2267      2269
      2267      2270      2270      2271      2270      2272      2270      2273
      2273      2274      2273      2275      2273      2276      2276      2277
      2276      2278      2278      2279      2278      2280      2280      2281
      2280      2282      2280      2283      2283      2284      2283      2285
      2283      2286      2286      2287      2286      2288      2286      2289
      2289      2290      2289      2291      2289      2292      2292      2293
      2292      2294      2292      2295      2295      2296      2295      2297
      2295      2298      2298      2299      2298      2300      2298      2301
      2301      2302      2301      2303      2301      2304      2252      2253
      2253      2255      2253      2254      2255      2256      2255      2257
      2255      2305      2305      2306      2305      2307      2305      2308
      2308      2309      2308      2310      2308      2311      2311      2312
      2311      2313      2311      2314      2314      2315      2314      2316
      2314      2317      2317      2318      2317      2319      2317      2320
      2320      2321      2320      2322      2320      2323      2323      2324
      2323      2325      2323      2326      2326      2327      2326      2328
      2326      2329      2329      2330      2329      2331      2329      2332
      2332      2333      2332      2334      2332      2335      2335      2336
      2335      2337      2335      2338      2338      2339      2338      2340
      2338      2341      2341      2342      2341      2343      2341      2344
      2344      2345      2344      2346      2344      2347      2348      2352
      2348      2356      2348      2360      2352      2353      2352      2354
      2352      2355      2356      2357      2356      2358      2356      2359
      2360      2361      2360      2362      2360      2363      2348      2349
      2349      2350      2349      2351      2349      2364      2364      2365
      2364      2366      2364      2370      2371      2372      2370      2367
      2367      2371      2367      2368      2367      2369      2372      2373
      2372      2374      2372      2375      2375      2376      2375      2383
      2375      2377      2383      2384      2383      2385      2383      2386
      2377      2378      2378      2380      2378      2379      2380      2381
      2380      2382      2380      2392      2392      2393      2392      2394
      2392      2395      2395      2396      2395      2397      2395      2398
      2398      2399      2398      2400      2398      2401      2401      2402
      2401      2403      2401      2404      2404      2405      2404      2406
      2404      2407      2407      2408      2407      2409      2407      2410
      2410      2411      2410      2412      2412      2413      2412      2414
      2414      2415      2414      2416      2414      2417      2417      2418
      2417      2419      2417      2420      2420      2421      2420      2422
      2420      2423      2423      2424      2423      2425      2423      2426
      2426      2427      2426      2428      2426      2429      2429      2430
      2429      2431      2429      2432      2432      2433      2432      2434
      2432      2435      2435      2436      2435      2437      2435      2438
      2386      2387      2387      2389      2387      2388      2389      2390
      2389      2391      2389      2439      2439      2440      2439      2441
      2439      2442      2442      2443      2442      2444      2442      2445
      2445      2446      2445      2447      2445      2448      2448      2449
      2448      2450      2448      2451      2451      2452      2451      2453
      2451      2454      2454      2455      2454      2456      2454      2457
      2457      2458      2457      2459      2457      2460      2460      2461
      2460      2462      2460      2463      2463      2464      2463      2465
      2463      2466      2466      2467      2466      2468      2466      2469
      2469      2470      2469      2471      2469      2472      2472      2473
      2472      2474      2472      2475      2475      2476      2475      2477
      2475      2478      2478      2479      2478      2480      2478      2481
      2482      2486      2482      2490      2482      2494      2486      2487
      2486      2488      2486      2489      2490      2491      2490      2492
      2490      2493      2494      2495      2494      2496      2494      2497
      2482      2483      2483      2484      2483      2485      2483      2498
      2498      2499      2498      2500      2498      2504      2505      2506
      2504      2501      2501      2505      2501      2502      2501      2503
      2506      2507      2506      2508      2506      2509      2509      2510
      2509      2517      2509      2511      2517      2518      2517      2519
      2517      2520      2511      2512      2512      2514      2512      2513
      2514      2515      2514      2516      2514      2526      2526      2527
      2526      2528      2526      2529      2529      2530      2529      2531
      2529      2532      2532      2533      2532      2534      2532      2535
      2535      2536      2535      2537      2535      2538      2538      2539
      2538      2540      2538      2541      2541      2542      2541      2543
      2541      2544      2544      2545      2544      2546      2546      2547
      2546      2548      2548      2549      2548      2550      2548      2551
      2551      2552      2551      2553      2551      2554      2554      2555
      2554      2556      2554      2557      2557      2558      2557      2559
      2557      2560      2560      2561      2560      2562      2560      2563
      2563      2564      2563      2565      2563      2566      2566      2567
      2566      2568      2566      2569      2569      2570      2569      2571
      2569      2572      2520      2521      2521      2523      2521      2522
      2523      2524      2523      2525      2523      2573      2573      2574
      2573      2575      2573      2576      2576      2577      2576      2578
      2576      2579      2579      2580      2579      2581      2579      2582
      2582      2583      2582      2584      2582      2585      2585      2586
      2585      2587      2585      2588      2588      2589      2588      2590
      2588      2591      2591      2592      2591      2593      2591      2594
      2594      2595      2594      2596      2594      2597      2597      2598
      2597      2599      2597      2600      2600      2601      2600      2602
      2600      2603      2603      2604      2603      2605      2603      2606
      2606      2607      2606      2608      2606      2609      2609      2610
      2609      2611      2609      2612      2612      2613      2612      2614
      2612      2615      2616      2617      2616      2618      2616      2619
      2616      2620      2624      2622      2622      2620      2622      2623
      2620      2621      2620      2625      2633      2632      2625      2626
      2625      2627      2625      2631      2631      2628      2628      2632
      2628      2629      2628      2630      2633      2634      2633      2635
      2633      2636      2636      2637      2636      2644      2636      2638
      2644      2645      2644      2646      2644      2647      2638      2639
      2639      2641      2639      2640      2641      2642      2641      2643
      2641      2653      2653      2654      2653      2655      2653      2656
      2656      2657      2656      2658      2656      2659      2659      2660
      2659      2661      2659      2662      2662      2663      2662      2664
      2662      2665      2665      2666      2665      2667      2665      2668
      2668      2669      2668      2670      2668      2671      2671      2672
      2671      2673      2673      2674      2673      2675      2675      2676
      2675      2677      2675      2678      2678      2679      2678      2680
      2678      2681      2681      2682      2681      2683      2681      2684
      2684      2685      2684      2686      2684      2687      2687      2688
      2687      2689      2687      2690      2690      2691      2690      2692
      2690      2693      2693      2694      2693      2695      2693      2696
      2696      2697      2696      2698      2696      2699      2647      2648
      2648      2650      2648      2649      2650      2651      2650      2652
      2650      2700      2700      2701      2700      2702      2700      2703
      2703      2704      2703      2705      2703      2706      2706      2707
      2706      2708      2706      2709      2709      2710      2709      2711
      2709      2712      2712      2713      2712      2714      2712      2715
      2715      2716      2715      2717      2715      2718      2718      2719
      2718      2720      2718      2721      2721      2722      2721      2723
      2721      2724      2724      2725      2724      2726      2724      2727
      2727      2728      2727      2729      2727      2730      2730      2731
      2730      2732      2730      2733      2733      2734      2733      2735
      2733      2736      2736      2737      2736      2738      2736      2739
      2739      2740      2739      2741      2739      2742      2743      2744
      2743      2745      2743      2746      2743      2747      2751      2749
      2749      2747      2749      2750      2747      2748      2747      2752
      2760      2759      2752      2753      2752      2754      2752      2758
      2758      2755      2755      2759      2755      2756      2755      2757
      2760      2761      2760      2762      2760      2763      2763      2764
      2763      2771      2763      2765      2771      2772      2771      2773
      2771      2774      2765      2766      2766      2768      2766      2767
      2768      2769      2768      2770      2768      2780      2780      2781
      2780      2782      2780      2783      2783      2784      2783      2785
      2783      2786      2786      2787      2786      2788      2786      2789
      2789      2790      2789      2791      2789      2792      2792      2793
      2792      2794      2792      2795      2795      2796      2795      2797
      2795      2798      2798      2799      2798      2800      2800      2801
      2800      2802      2802      2803      2802      2804      2802      2805
      2805      2806      2805      2807      2805      2808      2808      2809
      2808      2810      2808      2811      2811      2812      2811      2813
      2811      2814      2814      2815      2814      2816      2814      2817
      2817      2818      2817      2819      2817      2820      2820      2821
      2820      2822      2820      2823      2823      2824      2823      2825
      2823      2826      2774      2775      2775      2777      2775      2776
      2777      2778      2777      2779      2777      2827      2827      2828
      2827      2829      2827      2830      2830      2831      2830      2832
      2830      2833      2833      2834      2833      2835      2833      2836
      2836      2837      2836      2838      2836      2839      2839      2840
      2839      2841      2839      2842      2842      2843      2842      2844
      2842      2845      2845      2846      2845      2847      2845      2848
      2848      2849      2848      2850      2848      2851      2851      2852
      2851      2853      2851      2854      2854      2855      2854      2856
      2854      2857      2857      2858      2857      2859      2857      2860
      2860      2861      2860      2862      2860      2863      2863      2864
      2863      2865      2863      2866      2866      2867      2866      2868
      2866      2869      2870      2874      2870      2878      2870      2882
      2874      2875      2874      2876      2874      2877      2878      2879
      2878      2880      2878      2881      2882      2883      2882      2884
      2882      2885      2870      2871      2871      2872      2871      2873
      2871      2886      2886      2887      2886      2888      2886      2892
      2893      2894      2892      2889      2889      2893      2889      2890
      2889      2891      2894      2895      2894      2896      2894      2897
      2897      2898      2897      2905      2897      2899      2905      2906
      2905      2907      2905      2908      2899      2900      2900      2902
      2900      2901      2902      2903      2902      2904      2902      2914
      2914      2915      2914      2916      2914      2917      2917      2918
      2917      2919      2917      2920      2920      2921      2920      2922
      2920      2923      2923      2924      2923      2925      2923      2926
      2926      2927      2926      2928      2926      2929      2929      2930
      2929      2931      2929      2932      2932      2933      2932      2934
      2934      2935      2934      2936      2936      2937      2936      2938
      2936      2939      2939      2940      2939      2941      2939      2942
      2942      2943      2942      2944      2942      2945      2945      2946
      2945      2947      2945      2948      2948      2949      2948      2950
      2948      2951      2951      2952      2951      2953      2951      2954
      2954      2955      2954      2956      2954      2957      2957      2958
      2957      2959      2957      2960      2908      2909      2909      2911
      2909      2910      2911      2912      2911      2913      2911      2961
      2961      2962      2961      2963      2961      2964      2964      2965
      2964      2966      2964      2967      2967      2968      2967      2969
      2967      2970      2970      2971      2970      2972      2970      2973
      2973      2974      2973      2975      2973      2976      2976      2977
      2976      2978      2976      2979      2979      2980      2979      2981
      2979      2982      2982      2983      2982      2984      2982      2985
      2985      2986      2985      2987      2985      2988      2988      2989
      2988      2990      2988      2991      2991      2992      2991      2993
      2991      2994      2994      2995      2994      2996      2994      2997
      2997      2998      2997      2999      2997      3000      3000      3001
      3000      3002      3000      3003      3004      3008      3004      3012
      3004      3016      3008      3009      3008      3010      3008      3011
      3012      3013      3012      3014      3012      3015      3016      3017
      3016      3018      3016      3019      3004      3005      3005      3006
      3005      3007      3005      3020      3020      3021      3020      3022
      3020      3026      3027      3028      3026      3023      3023      3027
      3023      3024      3023      3025      3028      3029      3028      3030
      3028      3031      3031      3032      3031      3039      3031      3033
      3039      3040      3039      3041      3039      3042      3033      3034
      3034      3036      3034      3035      3036      3037      3036      3038
      3036      3048      3048      3049      3048      3050      3048      3051
      3051      3052      3051      3053      3051      3054      3054      3055
      3054      3056      3054      3057      3057      3058      3057      3059
      3057      3060      3060      3061      3060      3062      3060      3063
      3063      3064      3063      3065      3063      3066      3066      3067
      3066      3068      3068      3069      3068      3070      3070      3071
      3070      3072      3070      3073      3073      3074      3073      3075
      3073      3076      3076      3077      3076      3078      3076      3079
      3079      3080      3079      3081      3079      3082      3082      3083
      3082      3084      3082      3085      3085      3086      3085      3087
      3085      3088      3088      3089      3088      3090      3088      3091
      3091      3092      3091      3093      3091      3094      3042      3043
      3043      3045      3043      3044      3045      3046      3045      3047
      3045      3095      3095      3096      3095      3097      3095      3098
      3098      3099      3098      3100      3098      3101      3101      3102
      3101      3103      3101      3104      3104      3105      3104      3106
      3104      3107      3107      3108      3107      3109      3107      3110
      3110      3111      3110      3112      3110      3113      3113      3114
      3113      3115      3113      3116      3116      3117      3116      3118
      3116      3119      3119      3120      3119      3121      3119      3122
      3122      3123      3122      3124      3122      3125      3125      3126
      3125      3127      3125      3128      3128      3129      3128      3130
      3128      3131      3131      3132      3131      3133      3131      3134
      3134      3135      3134      3136      3134      3137      3138      3139
      3138      3140      3138      3141      3138      3142      3146      3144
      3144      3142      3144      3145      3142      3143      3142      3147
      3155      3154      3147      3148      3147      3149      3147      3153
      3153      3150      3150      3154      3150      3151      3150      3152
      3155      3156      3155      3157      3155      3158      3158      3159
      3158      3166      3158      3160      3166      3167      3166      3168
      3166      3169      3160      3161      3161      3163      3161      3162
      3163      3164      3163      3165      3163      3175      3175      3176
      3175      3177      3175      3178      3178      3179      3178      3180
      3178      3181      3181      3182      3181      3183      3181      3184
      3184      3185      3184      3186      3184      3187      3187      3188
      3187      3189      3187      3190      3190      3191      3190      3192
      3190      3193      3193      3194      3193      3195      3195      3196
      3195      3197      3197      3198      3197      3199      3197      3200
      3200      3201      3200      3202      3200      3203      3203      3204
      3203      3205      3203      3206      3206      3207      3206      3208
      3206      3209      3209      3210      3209      3211      3209      3212
      3212      3213      3212      3214      3212      3215      3215      3216
      3215      3217      3215      3218      3218      3219      3218      3220
      3218      3221      3169      3170      3170      3172      3170      3171
      3172      3173      3172      3174      3172      3222      3222      3223
      3222      3224      3222      3225      3225      3226      3225      3227
      3225      3228      3228      3229      3228      3230      3228      3231
      3231      3232      3231      3233      3231      3234      3234      3235
      3234      3236      3234      3237      3237      3238      3237      3239
      3237      3240      3240      3241      3240      3242      3240      3243
      3243      3244      3243      3245      3243      3246      3246      3247
      3246      3248      3246      3249      3249      3250      3249      3251
      3249      3252      3252      3253      3252      3254      3252      3255
      3255      3256      3255      3257      3255      3258      3258      3259
      3258      3260      3258      3261      3261      3262      3261      3263
      3261      3264      3265      3269      3265      3273      3265      3277
      3269      3270      3269      3271      3269      3272      3273      3274
      3273      3275      3273      3276      3277      3278      3277      3279
      3277      3280      3265      3266      3266      3267      3266      3268
      3266      3281      3281      3282      3281      3283      3281      3287
      3288      3289      3287      3284      3284      3288      3284      3285
      3284      3286      3289      3290      3289      3291      3289      3292
      3292      3293      3292      3300      3292      3294      3300      3301
      3300      3302      3300      3303      3294      3295      3295      3297
      3295      3296      3297      3298      3297      3299      3297      3309
      3309      3310      3309      3311      3309      3312      3312      3313
      3312      3314      3312      3315      3315      3316      3315      3317
      3315      3318      3318      3319      3318      3320      3318      3321
      3321      3322      3321      3323      3321      3324      3324      3325
      3324      3326      3324      3327      3327      3328      3327      3329
      3329      3330      3329      3331      3331      3332      3331      3333
      3331      3334      3334      3335      3334      3336      3334      3337
      3337      3338      3337      3339      3337      3340      3340      3341
      3340      3342      3340      3343      3343      3344      3343      3345
      3343      3346      3346      3347      3346      3348      3346      3349
      3349      3350      3349      3351      3349      3352      3352      3353
      3352      3354      3352      3355      3303      3304      3304      3306
      3304      3305      3306      3307      3306      3308      3306      3356
      3356      3357      3356      3358      3356      3359      3359      3360
      3359      3361      3359      3362      3362      3363      3362      3364
      3362      3365      3365      3366      3365      3367      3365      3368
      3368      3369      3368      3370      3368      3371      3371      3372
      3371      3373      3371      3374      3374      3375      3374      3376
      3374      3377      3377      3378      3377      3379      3377      3380
      3380      3381      3380      3382      3380      3383      3383      3384
      3383      3385      3383      3386      3386      3387      3386      3388
      3386      3389      3389      3390      3389      3391      3389      3392
      3392      3393      3392      3394      3392      3395      3395      3396
      3395      3397      3395      3398      3399      3403      3399      3407
      3399      3411      3403      3404      3403      3405      3403      3406
      3407      3408      3407      3409      3407      3410      3411      3412
      3411      3413      3411      3414      3399      3400      3400      3401
      3400      3402      3400      3415      3415      3416      3415      3417
      3415      3421      3422      3423      3421      3418      3418      3422
      3418      3419      3418      3420      3423      3424      3423      3425
      3423      3426      3426      3427      3426      3434      3426      3428
      3434      3435      3434      3436      3434      3437      3428      3429
      3429      3431      3429      3430      3431      3432      3431      3433
      3431      3443      3443      3444      3443      3445      3443      3446
      3446      3447      3446      3448      3446      3449      3449      3450
      3449      3451      3449      3452      3452      3453      3452      3454
      3452      3455      3455      3456      3455      3457      3455      3458
      3458      3459      3458      3460      3458      3461      3461      3462
      3461      3463      3463      3464      3463      3465      3465      3466
      3465      3467      3465      3468      3468      3469      3468      3470
      3468      3471      3471      3472      3471      3473      3471      3474
      3474      3475      3474      3476      3474      3477      3477      3478
      3477      3479      3477      3480      3480      3481      3480      3482
      3480      3483      3483      3484      3483      3485      3483      3486
      3486      3487      3486      3488      3486      3489      3437      3438
      3438      3440      3438      3439      3440      3441      3440      3442
      3440      3490      3490      3491      3490      3492      3490      3493
      3493      3494      3493      3495      3493      3496      3496      3497
      3496      3498      3496      3499      3499      3500      3499      3501
      3499      3502      3502      3503      3502      3504      3502      3505
      3505      3506      3505      3507      3505      3508      3508      3509
      3508      3510      3508      3511      3511      3512      3511      3513
      3511      3514      3514      3515      3514      3516      3514      3517
      3517      3518      3517      3519      3517      3520      3520      3521
      3520      3522      3520      3523      3523      3524      3523      3525
      3523      3526      3526      3527      3526      3528      3526      3529
      3529      3530      3529      3531      3529      3532      3533      3537
      3533      3541      3533      3545      3537      3538      3537      3539
      3537      3540      3541      3542      3541      3543      3541      3544
      3545      3546      3545      3547      3545      3548      3533      3534
      3534      3535      3534      3536      3534      3549      3549      3550
      3549      3551      3549      3555      3556      3557      3555      3552
      3552      3556      3552      3553      3552      3554      3557      3558
      3557      3559      3557      3560      3560      3561      3560      3568
      3560      3562      3568      3569      3568      3570      3568      3571
      3562      3563      3563      3565      3563      3564      3565      3566
      3565      3567      3565      3577      3577      3578      3577      3579
      3577      3580      3580      3581      3580      3582      3580      3583
      3583      3584      3583      3585      3583      3586      3586      3587
      3586      3588      3586      3589      3589      3590      3589      3591
      3589      3592      3592      3593      3592      3594      3592      3595
      3595      3596      3595      3597      3597      3598      3597      3599
      3599      3600      3599      3601      3599      3602      3602      3603
      3602      3604      3602      3605      3605      3606      3605      3607
      3605      3608      3608      3609      3608      3610      3608      3611
      3611      3612      3611      3613      3611      3614      3614      3615
      3614      3616      3614      3617      3617      3618      3617      3619
      3617      3620      3620      3621      3620      3622      3620      3623
      3571      3572      3572      3574      3572      3573      3574      3575
      3574      3576      3574      3624      3624      3625      3624      3626
      3624      3627      3627      3628      3627      3629      3627      3630
      3630      3631      3630      3632      3630      3633      3633      3634
      3633      3635      3633      3636      3636      3637      3636      3638
      3636      3639      3639      3640      3639      3641      3639      3642
      3642      3643      3642      3644      3642      3645      3645      3646
      3645      3647      3645      3648      3648      3649      3648      3650
      3648      3651      3651      3652      3651      3653      3651      3654
      3654      3655      3654      3656      3654      3657      3657      3658
      3657      3659      3657      3660      3660      3661      3660      3662
      3660      3663      3663      3664      3663      3665      3663      3666
      3667      3668      3667      3669      3667      3670      3667      3671
      3675      3673      3673      3671      3673      3674      3671      3672
      3671      3676      3684      3683      3676      3677      3676      3678
      3676      3682      3682      3679      3679      3683      3679      3680
      3679      3681      3684      3685      3684      3686      3684      3687
      3687      3688      3687      3695      3687      3689      3695      3696
      3695      3697      3695      3698      3689      3690      3690      3692
      3690      3691      3692      3693      3692      3694      3692      3704
      3704      3705      3704      3706      3704      3707      3707      3708
      3707      3709      3707      3710      3710      3711      3710      3712
      3710      3713      3713      3714      3713      3715      3713      3716
      3716      3717      3716      3718      3716      3719      3719      3720
      3719      3721      3719      3722      3722      3723      3722      3724
      3724      3725      3724      3726      3726      3727      3726      3728
      3726      3729      3729      3730      3729      3731      3729      3732
      3732      3733      3732      3734      3732      3735      3735      3736
      3735      3737      3735      3738      3738      3739      3738      3740
      3738      3741      3741      3742      3741      3743      3741      3744
      3744      3745      3744      3746      3744      3747      3747      3748
      3747      3749      3747      3750      3698      3699      3699      3701
      3699      3700      3701      3702      3701      3703      3701      3751
      3751      3752      3751      3753      3751      3754      3754      3755
      3754      3756      3754      3757      3757      3758      3757      3759
      3757      3760      3760      3761      3760      3762      3760      3763
      3763      3764      3763      3765      3763      3766      3766      3767
      3766      3768      3766      3769      3769      3770      3769      3771
      3769      3772      3772      3773      3772      3774      3772      3775
      3775      3776      3775      3777      3775      3778      3778      3779
      3778      3780      3778      3781      3781      3782      3781      3783
      3781      3784      3784      3785      3784      3786      3784      3787
      3787      3788      3787      3789      3787      3790      3790      3791
      3790      3792      3790      3793      3794      3798      3794      3802
      3794      3806      3798      3799      3798      3800      3798      3801
      3802      3803      3802      3804      3802      3805      3806      3807
      3806      3808      3806      3809      3794      3795      3795      3796
      3795      3797      3795      3810      3810      3811      3810      3812
      3810      3816      3817      3818      3816      3813      3813      3817
      3813      3814      3813      3815      3818      3819      3818      3820
      3818      3821      3821      3822      3821      3829      3821      3823
      3829      3830      3829      3831      3829      3832      3823      3824
      3824      3826      3824      3825      3826      3827      3826      3828
      3826      3838      3838      3839      3838      3840      3838      3841
      3841      3842      3841      3843      3841      3844      3844      3845
      3844      3846      3844      3847      3847      3848      3847      3849
      3847      3850      3850      3851      3850      3852      3850      3853
      3853      3854      3853      3855      3853      3856      3856      3857
      3856      3858      3858      3859      3858      3860      3860      3861
      3860      3862      3860      3863      3863      3864      3863      3865
      3863      3866      3866      3867      3866      3868      3866      3869
      3869      3870      3869      3871      3869      3872      3872      3873
      3872      3874      3872      3875      3875      3876      3875      3877
      3875      3878      3878      3879      3878      3880      3878      3881
      3881      3882      3881      3883      3881      3884      3832      3833
      3833      3835      3833      3834      3835      3836      3835      3837
      3835      3885      3885      3886      3885      3887      3885      3888
      3888      3889      3888      3890      3888      3891      3891      3892
      3891      3893      3891      3894      3894      3895      3894      3896
      3894      3897      3897      3898      3897      3899      3897      3900
      3900      3901      3900      3902      3900      3903      3903      3904
      3903      3905      3903      3906      3906      3907      3906      3908
      3906      3909      3909      3910      3909      3911      3909      3912
      3912      3913      3912      3914      3912      3915      3915      3916
      3915      3917      3915      3918      3918      3919      3918      3920
      3918      3921      3921      3922      3921      3923      3921      3924
      3924      3925      3924      3926      3924      3927      3928      3932
      3928      3936      3928      3940      3932      3933      3932      3934
      3932      3935      3936      3937      3936      3938      3936      3939
      3940      3941      3940      3942      3940      3943      3928      3929
      3929      3930      3929      3931      3929      3944      3944      3945
      3944      3946      3944      3950      3951      3952      3950      3947
      3947      3951      3947      3948      3947      3949      3952      3953
      3952      3954      3952      3955      3955      3956      3955      3963
      3955      3957      3963      3964      3963      3965      3963      3966
      3957      3958      3958      3960      3958      3959      3960      3961
      3960      3962      3960      3972      3972      3973      3972      3974
      3972      3975      3975      3976      3975      3977      3975      3978
      3978      3979      3978      3980      3978      3981      3981      3982
      3981      3983      3981      3984      3984      3985      3984      3986
      3984      3987      3987      3988      3987      3989      3987      3990
      3990      3991      3990      3992      3992      3993      3992      3994
      3994      3995      3994      3996      3994      3997      3997      3998
      3997      3999      3997      4000      4000      4001      4000      4002
      4000      4003      4003      4004      4003      4005      4003      4006
      4006      4007      4006      4008      4006      4009      4009      4010
      4009      4011      4009      4012      4012      4013      4012      4014
      4012      4015      4015      4016      4015      4017      4015      4018
      3966      3967      3967      3969      3967      3968      3969      3970
      3969      3971      3969      4019      4019      4020      4019      4021
      4019      4022      4022      4023      4022      4024      4022      4025
      4025      4026      4025      4027      4025      4028      4028      4029
      4028      4030      4028      4031      4031      4032      4031      4033
      4031      4034      4034      4035      4034      4036      4034      4037
      4037      4038      4037      4039      4037      4040      4040      4041
      4040      4042      4040      4043      4043      4044      4043      4045
      4043      4046      4046      4047      4046      4048      4046      4049
      4049      4050      4049      4051      4049      4052      4052      4053
      4052      4054      4052      4055      4055      4056      4055      4057
      4055      4058      4058      4059      4058      4060      4058      4061
      4062      4063      4062      4064      4062      4065      4062      4066
      4070      4068      4068      4066      4068      4069      4066      4067
      4066      4071      4079      4078      4071      4072      4071      4073
      4071      4077      4077      4074      4074      4078      4074      4075
      4074      4076      4079      4080      4079      4081      4079      4082
      4082      4083      4082      4090      4082      4084      4090      4091
      4090      4092      4090      4093      4084      4085      4085      4087
      4085      4086      4087      4088      4087      4089      4087      4099
      4099      4100      4099      4101      4099      4102      4102      4103
      4102      4104      4102      4105      4105      4106      4105      4107
      4105      4108      4108      4109      4108      4110      4108      4111
      4111      4112      4111      4113      4111      4114      4114      4115
      4114      4116      4114      4117      4117      4118      4117      4119
      4119      4120      4119      4121      4121      4122      4121      4123
      4121      4124      4124      4125      4124      4126      4124      4127
      4127      4128      4127      4129      4127      4130      4130      4131
      4130      4132      4130      4133      4133      4134      4133      4135
      4133      4136      4136      4137      4136      4138      4136      4139
      4139      4140      4139      4141      4139      4142      4142      4143
      4142      4144      4142      4145      4093      4094      4094      4096
      4094      4095      4096      4097      4096      4098      4096      4146
      4146      4147      4146      4148      4146      4149      4149      4150
      4149      4151      4149      4152      4152      4153      4152      4154
      4152      4155      4155      4156      4155      4157      4155      4158
      4158      4159      4158      4160      4158      4161      4161      4162
      4161      4163      4161      4164      4164      4165      4164      4166
      4164      4167      4167      4168      4167      4169      4167      4170
      4170      4171      4170      4172      4170      4173      4173      4174
      4173      4175      4173      4176      4176      4177      4176      4178
      4176      4179      4179      4180      4179      4181      4179      4182
      4182      4183      4182      4184      4182      4185      4185      4186
      4185      4187      4185      4188      4189      4193      4189      4197
      4189      4201      4193      4194      4193      4195      4193      4196
      4197      4198      4197      4199      4197      4200      4201      4202
      4201      4203      4201      4204      4189      4190      4190      4191
      4190      4192      4190      4205      4205      4206      4205      4207
      4205      4211      4212      4213      4211      4208      4208      4212
      4208      4209      4208      4210      4213      4214      4213      4215
      4213      4216      4216      4217      4216      4224      4216      4218
      4224      4225      4224      4226      4224      4227      4218      4219
      4219      4221      4219      4220      4221      4222      4221      4223
      4221      4233      4233      4234      4233      4235      4233      4236
      4236      4237      4236      4238      4236      4239      4239      4240
      4239      4241      4239      4242      4242      4243      4242      4244
      4242      4245      4245      4246      4245      4247      4245      4248
      4248      4249      4248      4250      4248      4251      4251      4252
      4251      4253      4253      4254      4253      4255      4255      4256
      4255      4257      4255      4258      4258      4259      4258      4260
      4258      4261      4261      4262      4261      4263      4261      4264
      4264      4265      4264      4266      4264      4267      4267      4268
      4267      4269      4267      4270      4270      4271      4270      4272
      4270      4273      4273      4274      4273      4275      4273      4276
      4276      4277      4276      4278      4276      4279      4227      4228
      4228      4230      4228      4229      4230      4231      4230      4232
      4230      4280      4280      4281      4280      4282      4280      4283
      4283      4284      4283      4285      4283      4286      4286      4287
      4286      4288      4286      4289      4289      4290      4289      4291
      4289      4292      4292      4293      4292      4294      4292      4295
      4295      4296      4295      4297      4295      4298      4298      4299
      4298      4300      4298      4301      4301      4302      4301      4303
      4301      4304      4304      4305      4304      4306      4304      4307
      4307      4308      4307      4309      4307      4310      4310      4311
      4310      4312      4310      4313      4313      4314      4313      4315
      4313      4316      4316      4317      4316      4318      4316      4319
      4319      4320      4319      4321      4319      4322      4323      4327
      4323      4331      4323      4335      4327      4328      4327      4329
      4327      4330      4331      4332      4331      4333      4331      4334
      4335      4336      4335      4337      4335      4338      4323      4324
      4324      4325      4324      4326      4324      4339      4339      4340
      4339      4341      4339      4345      4346      4347      4345      4342
      4342      4346      4342      4343      4342      4344      4347      4348
      4347      4349      4347      4350      4350      4351      4350      4358
      4350      4352      4358      4359      4358      4360      4358      4361
      4352      4353      4353      4355      4353      4354      4355      4356
      4355      4357      4355      4367      4367      4368      4367      4369
      4367      4370      4370      4371      4370      4372      4370      4373
      4373      4374      4373      4375      4373      4376      4376      4377
      4376      4378      4376      4379      4379      4380      4379      4381
      4379      4382      4382      4383      4382      4384      4382      4385
      4385      4386      4385      4387      4387      4388      4387      4389
      4389      4390      4389      4391      4389      4392      4392      4393
      4392      4394      4392      4395      4395      4396      4395      4397
      4395      4398      4398      4399      4398      4400      4398      4401
      4401      4402      4401      4403      4401      4404      4404      4405
      4404      4406      4404      4407      4407      4408      4407      4409
      4407      4410      4410      4411      4410      4412      4410      4413
      4361      4362      4362      4364      4362      4363      4364      4365
      4364      4366      4364      4414      4414      4415      4414      4416
      4414      4417      4417      4418      4417      4419      4417      4420
      4420      4421      4420      4422      4420      4423      4423      4424
      4423      4425      4423      4426      4426      4427      4426      4428
      4426      4429      4429      4430      4429      4431      4429      4432
      4432      4433      4432      4434      4432      4435      4435      4436
      4435      4437      4435      4438      4438      4439      4438      4440
      4438      4441      4441      4442      4441      4443      4441      4444
      4444      4445      4444      4446      4444      4447      4447      4448
      4447      4449      4447      4450      4450      4451      4450      4452
      4450      4453      4453      4454      4453      4455      4453      4456
      4457      4461      4457      4465      4457      4469      4461      4462
      4461      4463      4461      4464      4465      4466      4465      4467
      4465      4468      4469      4470      4469      4471      4469      4472
      4457      4458      4458      4459      4458      4460      4458      4473
      4473      4474      4473      4475      4473      4479      4480      4481
      4479      4476      4476      4480      4476      4477      4476      4478
      4481      4482      4481      4483      4481      4484      4484      4485
      4484      4492      4484      4486      4492      4493      4492      4494
      4492      4495      4486      4487      4487      4489      4487      4488
      4489      4490      4489      4491      4489      4501      4501      4502
      4501      4503      4501      4504      4504      4505      4504      4506
      4504      4507      4507      4508      4507      4509      4507      4510
      4510      4511      4510      4512      4510      4513      4513      4514
      4513      4515      4513      4516      4516      4517      4516      4518
      4516      4519      4519      4520      4519      4521      4521      4522
      4521      4523      4523      4524      4523      4525      4523      4526
      4526      4527      4526      4528      4526      4529      4529      4530
      4529      4531      4529      4532      4532      4533      4532      4534
      4532      4535      4535      4536      4535      4537      4535      4538
      4538      4539      4538      4540      4538      4541      4541      4542
      4541      4543      4541      4544      4544      4545      4544      4546
      4544      4547      4495      4496      4496      4498      4496      4497
      4498      4499      4498      4500      4498      4548      4548      4549
      4548      4550      4548      4551      4551      4552      4551      4553
      4551      4554      4554      4555      4554      4556      4554      4557
      4557      4558      4557      4559      4557      4560      4560      4561
      4560      4562      4560      4563      4563      4564      4563      4565
      4563      4566      4566      4567      4566      4568      4566      4569
      4569      4570      4569      4571      4569      4572      4572      4573
      4572      4574      4572      4575      4575      4576      4575      4577
      4575      4578      4578      4579      4578      4580      4578      4581
      4581      4582      4581      4583      4581      4584      4584      4585
      4584      4586      4584      4587      4587      4588      4587      4589
      4587      4590      4591      4595      4591      4599      4591      4603
      4595      4596      4595      4597      4595      4598      4599      4600
      4599      4601      4599      4602      4603      4604      4603      4605
      4603      4606      4591      4592      4592      4593      4592      4594
      4592      4607      4607      4608      4607      4609      4607      4613
      4614      4615      4613      4610      4610      4614      4610      4611
      4610      4612      4615      4616      4615      4617      4615      4618
      4618      4619      4618      4626      4618      4620      4626      4627
      4626      4628      4626      4629      4620      4621      4621      4623
      4621      4622      4623      4624      4623      4625      4623      4635
      4635      4636      4635      4637      4635      4638      4638      4639
      4638      4640      4638      4641      4641      4642      4641      4643
      4641      4644      4644      4645      4644      4646      4644      4647
      4647      4648      4647      4649      4647      4650      4650      4651
      4650      4652      4650      4653      4653      4654      4653      4655
      4655      4656      4655      4657      4657      4658      4657      4659
      4657      4660      4660      4661      4660      4662      4660      4663
      4663      4664      4663      4665      4663      4666      4666      4667
      4666      4668      4666      4669      4669      4670      4669      4671
      4669      4672      4672      4673      4672      4674      4672      4675
      4675      4676      4675      4677      4675      4678      4678      4679
      4678      4680      4678      4681      4629      4630      4630      4632
      4630      4631      4632      4633      4632      4634      4632      4682
      4682      4683      4682      4684      4682      4685      4685      4686
      4685      4687      4685      4688      4688      4689      4688      4690
      4688      4691      4691      4692      4691      4693      4691      4694
      4694      4695      4694      4696      4694      4697      4697      4698
      4697      4699      4697      4700      4700      4701      4700      4702
      4700      4703      4703      4704      4703      4705      4703      4706
      4706      4707      4706      4708      4706      4709      4709      4710
      4709      4711      4709      4712      4712      4713      4712      4714
      4712      4715      4715      4716      4715      4717      4715      4718
      4718      4719      4718      4720      4718      4721      4721      4722
      4721      4723      4721      4724      4725      4729      4725      4733
      4725      4737      4729      4730      4729      4731      4729      4732
      4733      4734      4733      4735      4733      4736      4737      4738
      4737      4739      4737      4740      4725      4726      4726      4727
      4726      4728      4726      4741      4741      4742      4741      4743
      4741      4747      4748      4749      4747      4744      4744      4748
      4744      4745      4744      4746      4749      4750      4749      4751
      4749      4752      4752      4753      4752      4760      4752      4754
      4760      4761      4760      4762      4760      4763      4754      4755
      4755      4757      4755      4756      4757      4758      4757      4759
      4757      4769      4769      4770      4769      4771      4769      4772
      4772      4773      4772      4774      4772      4775      4775      4776
      4775      4777      4775      4778      4778      4779      4778      4780
      4778      4781      4781      4782      4781      4783      4781      4784
      4784      4785      4784      4786      4784      4787      4787      4788
      4787      4789      4789      4790      4789      4791      4791      4792
      4791      4793      4791      4794      4794      4795      4794      4796
      4794      4797      4797      4798      4797      4799      4797      4800
      4800      4801      4800      4802      4800      4803      4803      4804
      4803      4805      4803      4806      4806      4807      4806      4808
      4806      4809      4809      4810      4809      4811      4809      4812
      4812      4813      4812      4814      4812      4815      4763      4764
      4764      4766      4764      4765      4766      4767      4766      4768
      4766      4816      4816      4817      4816      4818      4816      4819
      4819      4820      4819      4821      4819      4822      4822      4823
      4822      4824      4822      4825      4825      4826      4825      4827
      4825      4828      4828      4829      4828      4830      4828      4831
      4831      4832      4831      4833      4831      4834      4834      4835
      4834      4836      4834      4837      4837      4838      4837      4839
      4837      4840      4840      4841      4840      4842      4840      4843
      4843      4844      4843      4845      4843      4846      4846      4847
      4846      4848      4846      4849      4849      4850      4849      4851
      4849      4852      4852      4853      4852      4854      4852      4855
      4855      4856      4855      4857      4855      4858      4859      4863
      4859      4867      4859      4871      4863      4864      4863      4865
      4863      4866      4867      4868      4867      4869      4867      4870
      4871      4872      4871      4873      4871      4874      4859      4860
      4860      4861      4860      4862      4860      4875      4875      4876
      4875      4877      4875      4881      4882      4883      4881      4878
      4878      4882      4878      4879      4878      4880      4883      4884
      4883      4885      4883      4886      4886      4887      4886      4894
      4886      4888      4894      4895      4894      4896      4894      4897
      4888      4889      4889      4891      4889      4890      4891      4892
      4891      4893      4891      4903      4903      4904      4903      4905
      4903      4906      4906      4907      4906      4908      4906      4909
      4909      4910      4909      4911      4909      4912      4912      4913
      4912      4914      4912      4915      4915      4916      4915      4917
      4915      4918      4918      4919      4918      4920      4918      4921
      4921      4922      4921      4923      4923      4924      4923      4925
      4925      4926      4925      4927      4925      4928      4928      4929
      4928      4930      4928      4931      4931      4932      4931      4933
      4931      4934      4934      4935      4934      4936      4934      4937
      4937      4938      4937      4939      4937      4940      4940      4941
      4940      4942      4940      4943      4943      4944      4943      4945
      4943      4946      4946      4947      4946      4948      4946      4949
      4897      4898      4898      4900      4898      4899      4900      4901
      4900      4902      4900      4950      4950      4951      4950      4952
      4950      4953      4953      4954      4953      4955      4953      4956
      4956      4957      4956      4958      4956      4959      4959      4960
      4959      4961      4959      4962      4962      4963      4962      4964
      4962      4965      4965      4966      4965      4967      4965      4968
      4968      4969      4968      4970      4968      4971      4971      4972
      4971      4973      4971      4974      4974      4975      4974      4976
      4974      4977      4977      4978      4977      4979      4977      4980
      4980      4981      4980      4982      4980      4983      4983      4984
      4983      4985      4983      4986      4986      4987      4986      4988
      4986      4989      4989      4990      4989      4991      4989      4992
      4993      4997      4993      5001      4993      5005      4997      4998
      4997      4999      4997      5000      5001      5002      5001      5003
      5001      5004      5005      5006      5005      5007      5005      5008
      4993      4994      4994      4995      4994      4996      4994      5009
      5009      5010      5009      5011      5009      5015      5016      5017
      5015      5012      5012      5016      5012      5013      5012      5014
      5017      5018      5017      5019      5017      5020      5020      5021
      5020      5028      5020      5022      5028      5029      5028      5030
      5028      5031      5022      5023      5023      5025      5023      5024
      5025      5026      5025      5027      5025      5037      5037      5038
      5037      5039      5037      5040      5040      5041      5040      5042
      5040      5043      5043      5044      5043      5045      5043      5046
      5046      5047      5046      5048      5046      5049      5049      5050
      5049      5051      5049      5052      5052      5053      5052      5054
      5052      5055      5055      5056      5055      5057      5057      5058
      5057      5059      5059      5060      5059      5061      5059      5062
      5062      5063      5062      5064      5062      5065      5065      5066
      5065      5067      5065      5068      5068      5069      5068      5070
      5068      5071      5071      5072      5071      5073      5071      5074
      5074      5075      5074      5076      5074      5077      5077      5078
      5077      5079      5077      5080      5080      5081      5080      5082
      5080      5083      5031      5032      5032      5034      5032      5033
      5034      5035      5034      5036      5034      5084      5084      5085
      5084      5086      5084      5087      5087      5088      5087      5089
      5087      5090      5090      5091      5090      5092      5090      5093
      5093      5094      5093      5095      5093      5096      5096      5097
      5096      5098      5096      5099      5099      5100      5099      5101
      5099      5102      5102      5103      5102      5104      5102      5105
      5105      5106      5105      5107      5105      5108      5108      5109
      5108      5110      5108      5111      5111      5112      5111      5113
      5111      5114      5114      5115      5114      5116      5114      5117
      5117      5118      5117      5119      5117      5120      5120      5121
      5120      5122      5120      5123      5123      5124      5123      5125
      5123      5126      5127      5131      5127      5135      5127      5139
      5131      5132      5131      5133      5131      5134      5135      5136
      5135      5137      5135      5138      5139      5140      5139      5141
      5139      5142      5127      5128      5128      5129      5128      5130
      5128      5143      5143      5144      5143      5145      5143      5149
      5150      5151      5149      5146      5146      5150      5146      5147
      5146      5148      5151      5152      5151      5153      5151      5154
      5154      5155      5154      5162      5154      5156      5162      5163
      5162      5164      5162      5165      5156      5157      5157      5159
      5157      5158      5159      5160      5159      5161      5159      5171
      5171      5172      5171      5173      5171      5174      5174      5175
      5174      5176      5174      5177      5177      5178      5177      5179
      5177      5180      5180      5181      5180      5182      5180      5183
      5183      5184      5183      5185      5183      5186      5186      5187
      5186      5188      5186      5189      5189      5190      5189      5191
      5191      5192      5191      5193      5193      5194      5193      5195
      5193      5196      5196      5197      5196      5198      5196      5199
      5199      5200      5199      5201      5199      5202      5202      5203
      5202      5204      5202      5205      5205      5206      5205      5207
      5205      5208      5208      5209      5208      5210      5208      5211
      5211      5212      5211      5213      5211      5214      5214      5215
      5214      5216      5214      5217      5165      5166      5166      5168
      5166      5167      5168      5169      5168      5170      5168      5218
      5218      5219      5218      5220      5218      5221      5221      5222
      5221      5223      5221      5224      5224      5225      5224      5226
      5224      5227      5227      5228      5227      5229      5227      5230
      5230      5231      5230      5232      5230      5233      5233      5234
      5233      5235      5233      5236      5236      5237      5236      5238
      5236      5239      5239      5240      5239      5241      5239      5242
      5242      5243      5242      5244      5242      5245      5245      5246
      5245      5247      5245      5248      5248      5249      5248      5250
      5248      5251      5251      5252      5251      5253      5251      5254
      5254      5255      5254      5256      5254      5257      5257      5258
      5257      5259      5257      5260      5261      5265      5261      5269
      5261      5273      5265      5266      5265      5267      5265      5268
      5269      5270      5269      5271      5269      5272      5273      5274
      5273      5275      5273      5276      5261      5262      5262      5263
      5262      5264      5262      5277      5277      5278      5277      5279
      5277      5283      5284      5285      5283      5280      5280      5284
      5280      5281      5280      5282      5285      5286      5285      5287
      5285      5288      5288      5289      5288      5296      5288      5290
      5296      5297      5296      5298      5296      5299      5290      5291
      5291      5293      5291      5292      5293      5294      5293      5295
      5293      5305      5305      5306      5305      5307      5305      5308
      5308      5309      5308      5310      5308      5311      5311      5312
      5311      5313      5311      5314      5314      5315      5314      5316
      5314      5317      5317      5318      5317      5319      5317      5320
      5320      5321      5320      5322      5320      5323      5323      5324
      5323      5325      5325      5326      5325      5327      5327      5328
      5327      5329      5327      5330      5330      5331      5330      5332
      5330      5333      5333      5334      5333      5335      5333      5336
      5336      5337      5336      5338      5336      5339      5339      5340
      5339      5341      5339      5342      5342      5343      5342      5344
      5342      5345      5345      5346      5345      5347      5345      5348
      5348      5349      5348      5350      5348      5351      5299      5300
      5300      5302      5300      5301      5302      5303      5302      5304
      5302      5352      5352      5353      5352      5354      5352      5355
      5355      5356      5355      5357      5355      5358      5358      5359
      5358      5360      5358      5361      5361      5362      5361      5363
      5361      5364      5364      5365      5364      5366      5364      5367
      5367      5368      5367      5369      5367      5370      5370      5371
      5370      5372      5370      5373      5373      5374      5373      5375
      5373      5376      5376      5377      5376      5378      5376      5379
      5379      5380      5379      5381      5379      5382      5382      5383
      5382      5384      5382      5385      5385      5386      5385      5387
      5385      5388      5388      5389      5388      5390      5388      5391
      5391      5392      5391      5393      5391      5394      5395      5399
      5395      5403      5395      5407      5399      5400      5399      5401
      5399      5402      5403      5404      5403      5405      5403      5406
      5407      5408      5407      5409      5407      5410      5395      5396
      5396      5397      5396      5398      5396      5411      5411      5412
      5411      5413      5411      5417      5418      5419      5417      5414
      5414      5418      5414      5415      5414      5416      5419      5420
      5419      5421      5419      5422      5422      5423      5422      5430
      5422      5424      5430      5431      5430      5432      5430      5433
      5424      5425      5425      5427      5425      5426      5427      5428
      5427      5429      5427      5439      5439      5440      5439      5441
      5439      5442      5442      5443      5442      5444      5442      5445
      5445      5446      5445      5447      5445      5448      5448      5449
      5448      5450      5448      5451      5451      5452      5451      5453
      5451      5454      5454      5455      5454      5456      5454      5457
      5457      5458      5457      5459      5459      5460      5459      5461
      5461      5462      5461      5463      5461      5464      5464      5465
      5464      5466      5464      5467      5467      5468      5467      5469
      5467      5470      5470      5471      5470      5472      5470      5473
      5473      5474      5473      5475      5473      5476      5476      5477
      5476      5478      5476      5479      5479      5480      5479      5481
      5479      5482      5482      5483      5482      5484      5482      5485
      5433      5434      5434      5436      5434      5435      5436      5437
      5436      5438      5436      5486      5486      5487      5486      5488
      5486      5489      5489      5490      5489      5491      5489      5492
      5492      5493      5492      5494      5492      5495      5495      5496
      5495      5497      5495      5498      5498      5499      5498      5500
      5498      5501      5501      5502      5501      5503      5501      5504
      5504      5505      5504      5506      5504      5507      5507      5508
      5507      5509      5507      5510      5510      5511      5510      5512
      5510      5513      5513      5514      5513      5515      5513      5516
      5516      5517      5516      5518      5516      5519      5519      5520
      5519      5521      5519      5522      5522      5523      5522      5524
      5522      5525      5525      5526      5525      5527      5525      5528
      5529      5533      5529      5537      5529      5541      5533      5534
      5533      5535      5533      5536      5537      5538      5537      5539
      5537      5540      5541      5542      5541      5543      5541      5544
      5529      5530      5530      5531      5530      5532      5530      5545
      5545      5546      5545      5547      5545      5551      5552      5553
      5551      5548      5548      5552      5548      5549      5548      5550
      5553      5554      5553      5555      5553      5556      5556      5557
      5556      5564      5556      5558      5564      5565      5564      5566
      5564      5567      5558      5559      5559      5561      5559      5560
      5561      5562      5561      5563      5561      5573      5573      5574
      5573      5575      5573      5576      5576      5577      5576      5578
      5576      5579      5579      5580      5579      5581      5579      5582
      5582      5583      5582      5584      5582      5585      5585      5586
      5585      5587      5585      5588      5588      5589      5588      5590
      5588      5591      5591      5592      5591      5593      5593      5594
      5593      5595      5595      5596      5595      5597      5595      5598
      5598      5599      5598      5600      5598      5601      5601      5602
      5601      5603      5601      5604      5604      5605      5604      5606
      5604      5607      5607      5608      5607      5609      5607      5610
      5610      5611      5610      5612      5610      5613      5613      5614
      5613      5615      5613      5616      5616      5617      5616      5618
      5616      5619      5567      5568      5568      5570      5568      5569
      5570      5571      5570      5572      5570      5620      5620      5621
      5620      5622      5620      5623      5623      5624      5623      5625
      5623      5626      5626      5627      5626      5628      5626      5629
      5629      5630      5629      5631      5629      5632      5632      5633
      5632      5634      5632      5635      5635      5636      5635      5637
      5635      5638      5638      5639      5638      5640      5638      5641
      5641      5642      5641      5643      5641      5644      5644      5645
      5644      5646      5644      5647      5647      5648      5647      5649
      5647      5650      5650      5651      5650      5652      5650      5653
      5653      5654      5653      5655      5653      5656      5656      5657
      5656      5658      5656      5659      5659      5660      5659      5661
      5659      5662      5663      5667      5663      5671      5663      5675
      5667      5668      5667      5669      5667      5670      5671      5672
      5671      5673      5671      5674      5675      5676      5675      5677
      5675      5678      5663      5664      5664      5665      5664      5666
      5664      5679      5679      5680      5679      5681      5679      5685
      5686      5687      5685      5682      5682      5686      5682      5683
      5682      5684      5687      5688      5687      5689      5687      5690
      5690      5691      5690      5698      5690      5692      5698      5699
      5698      5700      5698      5701      5692      5693      5693      5695
      5693      5694      5695      5696      5695      5697      5695      5707
      5707      5708      5707      5709      5707      5710      5710      5711
      5710      5712      5710      5713      5713      5714      5713      5715
      5713      5716      5716      5717      5716      5718      5716      5719
      5719      5720      5719      5721      5719      5722      5722      5723
      5722      5724      5722      5725      5725      5726      5725      5727
      5727      5728      5727      5729      5729      5730      5729      5731
      5729      5732      5732      5733      5732      5734      5732      5735
      5735      5736      5735      5737      5735      5738      5738      5739
      5738      5740      5738      5741      5741      5742      5741      5743
      5741      5744      5744      5745      5744      5746      5744      5747
      5747      5748      5747      5749      5747      5750      5750      5751
      5750      5752      5750      5753      5701      5702      5702      5704
      5702      5703      5704      5705      5704      5706      5704      5754
      5754      5755      5754      5756      5754      5757      5757      5758
      5757      5759      5757      5760      5760      5761      5760      5762
      5760      5763      5763      5764      5763      5765      5763      5766
      5766      5767      5766      5768      5766      5769      5769      5770
      5769      5771      5769      5772      5772      5773      5772      5774
      5772      5775      5775      5776      5775      5777      5775      5778
      5778      5779      5778      5780      5778      5781      5781      5782
      5781      5783      5781      5784      5784      5785      5784      5786
      5784      5787      5787      5788      5787      5789      5787      5790
      5790      5791      5790      5792      5790      5793      5793      5794
      5793      5795      5793      5796      5797      5801      5797      5805
      5797      5809      5801      5802      5801      5803      5801      5804
      5805      5806      5805      5807      5805      5808      5809      5810
      5809      5811      5809      5812      5797      5798      5798      5799
      5798      5800      5798      5813      5813      5814      5813      5815
      5813      5819      5820      5821      5819      5816      5816      5820
      5816      5817      5816      5818      5821      5822      5821      5823
      5821      5824      5824      5825      5824      5832      5824      5826
      5832      5833      5832      5834      5832      5835      5826      5827
      5827      5829      5827      5828      5829      5830      5829      5831
      5829      5841      5841      5842      5841      5843      5841      5844
      5844      5845      5844      5846      5844      5847      5847      5848
      5847      5849      5847      5850      5850      5851      5850      5852
      5850      5853      5853      5854      5853      5855      5853      5856
      5856      5857      5856      5858      5856      5859      5859      5860
      5859      5861      5861      5862      5861      5863      5863      5864
      5863      5865      5863      5866      5866      5867      5866      5868
      5866      5869      5869      5870      5869      5871      5869      5872
      5872      5873      5872      5874      5872      5875      5875      5876
      5875      5877      5875      5878      5878      5879      5878      5880
      5878      5881      5881      5882      5881      5883      5881      5884
      5884      5885      5884      5886      5884      5887      5835      5836
      5836      5838      5836      5837      5838      5839      5838      5840
      5838      5888      5888      5889      5888      5890      5888      5891
      5891      5892      5891      5893      5891      5894      5894      5895
      5894      5896      5894      5897      5897      5898      5897      5899
      5897      5900      5900      5901      5900      5902      5900      5903
      5903      5904      5903      5905      5903      5906      5906      5907
      5906      5908      5906      5909      5909      5910      5909      5911
      5909      5912      5912      5913      5912      5914      5912      5915
      5915      5916      5915      5917      5915      5918      5918      5919
      5918      5920      5918      5921      5921      5922      5921      5923
      5921      5924      5924      5925      5924      5926      5924      5927
      5927      5928      5927      5929      5927      5930      5931      5935
      5931      5939      5931      5943      5935      5936      5935      5937
      5935      5938      5939      5940      5939      5941      5939      5942
      5943      5944      5943      5945      5943      5946      5931      5932
      5932      5933      5932      5934      5932      5947      5947      5948
      5947      5949      5947      5953      5954      5955      5953      5950
      5950      5954      5950      5951      5950      5952      5955      5956
      5955      5957      5955      5958      5958      5959      5958      5966
      5958      5960      5966      5967      5966      5968      5966      5969
      5960      5961      5961      5963      5961      5962      5963      5964
      5963      5965      5963      5975      5975      5976      5975      5977
      5975      5978      5978      5979      5978      5980      5978      5981
      5981      5982      5981      5983      5981      5984      5984      5985
      5984      5986      5984      5987      5987      5988      5987      5989
      5987      5990      5990      5991      5990      5992      5990      5993
      5993      5994      5993      5995      5995      5996      5995      5997
      5997      5998      5997      5999      5997      6000      6000      6001
      6000      6002      6000      6003      6003      6004      6003      6005
      6003      6006      6006      6007      6006      6008      6006      6009
      6009      6010      6009      6011      6009      6012      6012      6013
      6012      6014      6012      6015      6015      6016      6015      6017
      6015      6018      6018      6019      6018      6020      6018      6021
      5969      5970      5970      5972      5970      5971      5972      5973
      5972      5974      5972      6022      6022      6023      6022      6024
      6022      6025      6025      6026      6025      6027      6025      6028
      6028      6029      6028      6030      6028      6031      6031      6032
      6031      6033      6031      6034      6034      6035      6034      6036
      6034      6037      6037      6038      6037      6039      6037      6040
      6040      6041      6040      6042      6040      6043      6043      6044
      6043      6045      6043      6046      6046      6047      6046      6048
      6046      6049      6049      6050      6049      6051      6049      6052
      6052      6053      6052      6054      6052      6055      6055      6056
      6055      6057      6055      6058      6058      6059      6058      6060
      6058      6061      6061      6062      6061      6063      6061      6064
      6065      6069      6065      6073      6065      6077      6069      6070
      6069      6071      6069      6072      6073      6074      6073      6075
      6073      6076      6077      6078      6077      6079      6077      6080
      6065      6066      6066      6067      6066      6068      6066      6081
      6081      6082      6081      6083      6081      6087      6088      6089
      6087      6084      6084      6088      6084      6085      6084      6086
      6089      6090      6089      6091      6089      6092      6092      6093
      6092      6100      6092      6094      6100      6101      6100      6102
      6100      6103      6094      6095      6095      6097      6095      6096
      6097      6098      6097      6099      6097      6109      6109      6110
      6109      6111      6109      6112      6112      6113      6112      6114
      6112      6115      6115      6116      6115      6117      6115      6118
      6118      6119      6118      6120      6118      6121      6121      6122
      6121      6123      6121      6124      6124      6125      6124      6126
      6124      6127      6127      6128      6127      6129      6129      6130
      6129      6131      6131      6132      6131      6133      6131      6134
      6134      6135      6134      6136      6134      6137      6137      6138
      6137      6139      6137      6140      6140      6141      6140      6142
      6140      6143      6143      6144      6143      6145      6143      6146
      6146      6147      6146      6148      6146      6149      6149      6150
      6149      6151      6149      6152      6152      6153      6152      6154
      6152      6155      6103      6104      6104      6106      6104      6105
      6106      6107      6106      6108      6106      6156      6156      6157
      6156      6158      6156      6159      6159      6160      6159      6161
      6159      6162      6162      6163      6162      6164      6162      6165
      6165      6166      6165      6167      6165      6168      6168      6169
      6168      6170      6168      6171      6171      6172      6171      6173
      6171      6174      6174      6175      6174      6176      6174      6177
      6177      6178      6177      6179      6177      6180      6180      6181
      6180      6182      6180      6183      6183      6184      6183      6185
      6183      6186      6186      6187      6186      6188      6186      6189
      6189      6190      6189      6191      6189      6192      6192      6193
      6192      6194      6192      6195      6195      6196      6195      6197
      6195      6198      6199      6203      6199      6207      6199      6211
      6203      6204      6203      6205      6203      6206      6207      6208
      6207      6209      6207      6210      6211      6212      6211      6213
      6211      6214      6199      6200      6200      6201      6200      6202
      6200      6215      6215      6216      6215      6217      6215      6221
      6222      6223      6221      6218      6218      6222      6218      6219
      6218      6220      6223      6224      6223      6225      6223      6226
      6226      6227      6226      6234      6226      6228      6234      6235
      6234      6236      6234      6237      6228      6229      6229      6231
      6229      6230      6231      6232      6231      6233      6231      6243
      6243      6244      6243      6245      6243      6246      6246      6247
      6246      6248      6246      6249      6249      6250      6249      6251
      6249      6252      6252      6253      6252      6254      6252      6255
      6255      6256      6255      6257      6255      6258      6258      6259
      6258      6260      6258      6261      6261      6262      6261      6263
      6263      6264      6263      6265      6265      6266      6265      6267
      6265      6268      6268      6269      6268      6270      6268      6271
      6271      6272      6271      6273      6271      6274      6274      6275
      6274      6276      6274      6277      6277      6278      6277      6279
      6277      6280      6280      6281      6280      6282      6280      6283
      6283      6284      6283      6285      6283      6286      6286      6287
      6286      6288      6286      6289      6237      6238      6238      6240
      6238      6239      6240      6241      6240      6242      6240      6290
      6290      6291      6290      6292      6290      6293      6293      6294
      6293      6295      6293      6296      6296      6297      6296      6298
      6296      6299      6299      6300      6299      6301      6299      6302
      6302      6303      6302      6304      6302      6305      6305      6306
      6305      6307      6305      6308      6308      6309      6308      6310
      6308      6311      6311      6312      6311      6313      6311      6314
      6314      6315      6314      6316      6314      6317      6317      6318
      6317      6319      6317      6320      6320      6321      6320      6322
      6320      6323      6323      6324      6323      6325      6323      6326
      6326      6327      6326      6328      6326      6329      6329      6330
      6329      6331      6329      6332      6333      6334      6333      6335
      6333      6336      6333      6337      6341      6339      6339      6337
      6339      6340      6337      6338      6337      6342      6350      6349
      6342      6343      6342      6344      6342      6348      6348      6345
      6345      6349      6345      6346      6345      6347      6350      6351
      6350      6352      6350      6353      6353      6354      6353      6361
      6353      6355      6361      6362      6361      6363      6361      6364
      6355      6356      6356      6358      6356      6357      6358      6359
      6358      6360      6358      6370      6370      6371      6370      6372
      6370      6373      6373      6374      6373      6375      6373      6376
      6376      6377      6376      6378      6376      6379      6379      6380
      6379      6381      6379      6382      6382      6383      6382      6384
      6382      6385      6385      6386      6385      6387      6385      6388
      6388      6389      6388      6390      6390      6391      6390      6392
      6392      6393      6392      6394      6392      6395      6395      6396
      6395      6397      6395      6398      6398      6399      6398      6400
      6398      6401      6401      6402      6401      6403      6401      6404
      6404      6405      6404      6406      6404      6407      6407      6408
      6407      6409      6407      6410      6410      6411      6410      6412
      6410      6413      6413      6414      6413      6415      6413      6416
      6364      6365      6365      6367      6365      6366      6367      6368
      6367      6369      6367      6417      6417      6418      6417      6419
      6417      6420      6420      6421      6420      6422      6420      6423
      6423      6424      6423      6425      6423      6426      6426      6427
      6426      6428      6426      6429      6429      6430      6429      6431
      6429      6432      6432      6433      6432      6434      6432      6435
      6435      6436      6435      6437      6435      6438      6438      6439
      6438      6440      6438      6441      6441      6442      6441      6443
      6441      6444      6444      6445      6444      6446      6444      6447
      6447      6448      6447      6449      6447      6450      6450      6451
      6450      6452      6450      6453      6453      6454      6453      6455
      6453      6456      6456      6457      6456      6458      6456      6459
      6460      6461      6460      6462      6460      6463      6460      6464
      6468      6466      6466      6464      6466      6467      6464      6465
      6464      6469      6477      6476      6469      6470      6469      6471
      6469      6475      6475      6472      6472      6476      6472      6473
      6472      6474      6477      6478      6477      6479      6477      6480
      6480      6481      6480      6488      6480      6482      6488      6489
      6488      6490      6488      6491      6482      6483      6483      6485
      6483      6484      6485      6486      6485      6487      6485      6497
      6497      6498      6497      6499      6497      6500      6500      6501
      6500      6502      6500      6503      6503      6504      6503      6505
      6503      6506      6506      6507      6506      6508      6506      6509
      6509      6510      6509      6511      6509      6512      6512      6513
      6512      6514      6512      6515      6515      6516      6515      6517
      6517      6518      6517      6519      6519      6520      6519      6521
      6519      6522      6522      6523      6522      6524      6522      6525
      6525      6526      6525      6527      6525      6528      6528      6529
      6528      6530      6528      6531      6531      6532      6531      6533
      6531      6534      6534      6535      6534      6536      6534      6537
      6537      6538      6537      6539      6537      6540      6540      6541
      6540      6542      6540      6543      6491      6492      6492      6494
      6492      6493      6494      6495      6494      6496      6494      6544
      6544      6545      6544      6546      6544      6547      6547      6548
      6547      6549      6547      6550      6550      6551      6550      6552
      6550      6553      6553      6554      6553      6555      6553      6556
      6556      6557      6556      6558      6556      6559      6559      6560
      6559      6561      6559      6562      6562      6563      6562      6564
      6562      6565      6565      6566      6565      6567      6565      6568
      6568      6569      6568      6570      6568      6571      6571      6572
      6571      6573      6571      6574      6574      6575      6574      6576
      6574      6577      6577      6578      6577      6579      6577      6580
      6580      6581      6580      6582      6580      6583      6583      6584
      6583      6585      6583      6586      6587      6591      6587      6595
      6587      6599      6591      6592      6591      6593      6591      6594
      6595      6596      6595      6597      6595      6598      6599      6600
      6599      6601      6599      6602      6587      6588      6588      6589
      6588      6590      6588      6603      6603      6604      6603      6605
      6603      6609      6610      6611      6609      6606      6606      6610
      6606      6607      6606      6608      6611      6612      6611      6613
      6611      6614      6614      6615      6614      6622      6614      6616
      6622      6623      6622      6624      6622      6625      6616      6617
      6617      6619      6617      6618      6619      6620      6619      6621
      6619      6631      6631      6632      6631      6633      6631      6634
      6634      6635      6634      6636      6634      6637      6637      6638
      6637      6639      6637      6640      6640      6641      6640      6642
      6640      6643      6643      6644      6643      6645      6643      6646
      6646      6647      6646      6648      6646      6649      6649      6650
      6649      6651      6651      6652      6651      6653      6653      6654
      6653      6655      6653      6656      6656      6657      6656      6658
      6656      6659      6659      6660      6659      6661      6659      6662
      6662      6663      6662      6664      6662      6665      6665      6666
      6665      6667      6665      6668      6668      6669      6668      6670
      6668      6671      6671      6672      6671      6673      6671      6674
      6674      6675      6674      6676      6674      6677      6625      6626
      6626      6628      6626      6627      6628      6629      6628      6630
      6628      6678      6678      6679      6678      6680      6678      6681
      6681      6682      6681      6683      6681      6684      6684      6685
      6684      6686      6684      6687      6687      6688      6687      6689
      6687      6690      6690      6691      6690      6692      6690      6693
      6693      6694      6693      6695      6693      6696      6696      6697
      6696      6698      6696      6699      6699      6700      6699      6701
      6699      6702      6702      6703      6702      6704      6702      6705
      6705      6706      6705      6707      6705      6708      6708      6709
      6708      6710      6708      6711      6711      6712      6711      6713
      6711      6714      6714      6715      6714      6716      6714      6717
      6717      6718      6717      6719      6717      6720      6721      6725
      6721      6729      6721      6733      6725      6726      6725      6727
      6725      6728      6729      6730      6729      6731      6729      6732
      6733      6734      6733      6735      6733      6736      6721      6722
      6722      6723      6722      6724      6722      6737      6737      6738
      6737      6739      6737      6743      6744      6745      6743      6740
      6740      6744      6740      6741      6740      6742      6745      6746
      6745      6747      6745      6748      6748      6749      6748      6756
      6748      6750      6756      6757      6756      6758      6756      6759
      6750      6751      6751      6753      6751      6752      6753      6754
      6753      6755      6753      6765      6765      6766      6765      6767
      6765      6768      6768      6769      6768      6770      6768      6771
      6771      6772      6771      6773      6771      6774      6774      6775
      6774      6776      6774      6777      6777      6778      6777      6779
      6777      6780      6780      6781      6780      6782      6780      6783
      6783      6784      6783      6785      6785      6786      6785      6787
      6787      6788      6787      6789      6787      6790      6790      6791
      6790      6792      6790      6793      6793      6794      6793      6795
      6793      6796      6796      6797      6796      6798      6796      6799
      6799      6800      6799      6801      6799      6802      6802      6803
      6802      6804      6802      6805      6805      6806      6805      6807
      6805      6808      6808      6809      6808      6810      6808      6811
      6759      6760      6760      6762      6760      6761      6762      6763
      6762      6764      6762      6812      6812      6813      6812      6814
      6812      6815      6815      6816      6815      6817      6815      6818
      6818      6819      6818      6820      6818      6821      6821      6822
      6821      6823      6821      6824      6824      6825      6824      6826
      6824      6827      6827      6828      6827      6829      6827      6830
      6830      6831      6830      6832      6830      6833      6833      6834
      6833      6835      6833      6836      6836      6837      6836      6838
      6836      6839      6839      6840      6839      6841      6839      6842
      6842      6843      6842      6844      6842      6845      6845      6846
      6845      6847      6845      6848      6848      6849      6848      6850
      6848      6851      6851      6852      6851      6853      6851      6854
      6855      6859      6855      6863      6855      6867      6859      6860
      6859      6861      6859      6862      6863      6864      6863      6865
      6863      6866      6867      6868      6867      6869      6867      6870
      6855      6856      6856      6857      6856      6858      6856      6871
      6871      6872      6871      6873      6871      6877      6878      6879
      6877      6874      6874      6878      6874      6875      6874      6876
      6879      6880      6879      6881      6879      6882      6882      6883
      6882      6890      6882      6884      6890      6891      6890      6892
      6890      6893      6884      6885      6885      6887      6885      6886
      6887      6888      6887      6889      6887      6899      6899      6900
      6899      6901      6899      6902      6902      6903      6902      6904
      6902      6905      6905      6906      6905      6907      6905      6908
      6908      6909      6908      6910      6908      6911      6911      6912
      6911      6913      6911      6914      6914      6915      6914      6916
      6914      6917      6917      6918      6917      6919      6919      6920
      6919      6921      6921      6922      6921      6923      6921      6924
      6924      6925      6924      6926      6924      6927      6927      6928
      6927      6929      6927      6930      6930      6931      6930      6932
      6930      6933      6933      6934      6933      6935      6933      6936
      6936      6937      6936      6938      6936      6939      6939      6940
      6939      6941      6939      6942      6942      6943      6942      6944
      6942      6945      6893      6894      6894      6896      6894      6895
      6896      6897      6896      6898      6896      6946      6946      6947
      6946      6948      6946      6949      6949      6950      6949      6951
      6949      6952      6952      6953      6952      6954      6952      6955
      6955      6956      6955      6957      6955      6958      6958      6959
      6958      6960      6958      6961      6961      6962      6961      6963
      6961      6964      6964      6965      6964      6966      6964      6967
      6967      6968      6967      6969      6967      6970      6970      6971
      6970      6972      6970      6973      6973      6974      6973      6975
      6973      6976      6976      6977      6976      6978      6976      6979
      6979      6980      6979      6981      6979      6982      6982      6983
      6982      6984      6982      6985      6985      6986      6985      6987
      6985      6988      6989      6990      6989      6991      6989      6992
      6989      6993      6997      6995      6995      6993      6995      6996
      6993      6994      6993      6998      7006      7005      6998      6999
      6998      7000      6998      7004      7004      7001      7001      7005
      7001      7002      7001      7003      7006      7007      7006      7008
      7006      7009      7009      7010      7009      7017      7009      7011
      7017      7018      7017      7019      7017      7020      7011      7012
      7012      7014      7012      7013      7014      7015      7014      7016
      7014      7026      7026      7027      7026      7028      7026      7029
      7029      7030      7029      7031      7029      7032      7032      7033
      7032      7034      7032      7035      7035      7036      7035      7037
      7035      7038      7038      7039      7038      7040      7038      7041
      7041      7042      7041      7043      7041      7044      7044      7045
      7044      7046      7046      7047      7046      7048      7048      7049
      7048      7050      7048      7051      7051      7052      7051      7053
      7051      7054      7054      7055      7054      7056      7054      7057
      7057      7058      7057      7059      7057      7060      7060      7061
      7060      7062      7060      7063      7063      7064      7063      7065
      7063      7066      7066      7067      7066      7068      7066      7069
      7069      7070      7069      7071      7069      7072      7020      7021
      7021      7023      7021      7022      7023      7024      7023      7025
      7023      7073      7073      7074      7073      7075      7073      7076
      7076      7077      7076      7078      7076      7079      7079      7080
      7079      7081      7079      7082      7082      7083      7082      7084
      7082      7085      7085      7086      7085      7087      7085      7088
      7088      7089      7088      7090      7088      7091      7091      7092
      7091      7093      7091      7094      7094      7095      7094      7096
      7094      7097      7097      7098      7097      7099      7097      7100
      7100      7101      7100      7102      7100      7103      7103      7104
      7103      7105      7103      7106      7106      7107      7106      7108
      7106      7109      7109      7110      7109      7111      7109      7112
      7112      7113      7112      7114      7112      7115      7116      7120
      7116      7124      7116      7128      7120      7121      7120      7122
      7120      7123      7124      7125      7124      7126      7124      7127
      7128      7129      7128      7130      7128      7131      7116      7117
      7117      7118      7117      7119      7117      7132      7132      7133
      7132      7134      7132      7138      7139      7140      7138      7135
      7135      7139      7135      7136      7135      7137      7140      7141
      7140      7142      7140      7143      7143      7144      7143      7151
      7143      7145      7151      7152      7151      7153      7151      7154
      7145      7146      7146      7148      7146      7147      7148      7149
      7148      7150      7148      7160      7160      7161      7160      7162
      7160      7163      7163      7164      7163      7165      7163      7166
      7166      7167      7166      7168      7166      7169      7169      7170
      7169      7171      7169      7172      7172      7173      7172      7174
      7172      7175      7175      7176      7175      7177      7175      7178
      7178      7179      7178      7180      7180      7181      7180      7182
      7182      7183      7182      7184      7182      7185      7185      7186
      7185      7187      7185      7188      7188      7189      7188      7190
      7188      7191      7191      7192      7191      7193      7191      7194
      7194      7195      7194      7196      7194      7197      7197      7198
      7197      7199      7197      7200      7200      7201      7200      7202
      7200      7203      7203      7204      7203      7205      7203      7206
      7154      7155      7155      7157      7155      7156      7157      7158
      7157      7159      7157      7207      7207      7208      7207      7209
      7207      7210      7210      7211      7210      7212      7210      7213
      7213      7214      7213      7215      7213      7216      7216      7217
      7216      7218      7216      7219      7219      7220      7219      7221
      7219      7222      7222      7223      7222      7224      7222      7225
      7225      7226      7225      7227      7225      7228      7228      7229
      7228      7230      7228      7231      7231      7232      7231      7233
      7231      7234      7234      7235      7234      7236      7234      7237
      7237      7238      7237      7239      7237      7240      7240      7241
      7240      7242      7240      7243      7243      7244      7243      7245
      7243      7246      7246      7247      7246      7248      7246      7249
      7250      7254      7250      7258      7250      7262      7254      7255
      7254      7256      7254      7257      7258      7259      7258      7260
      7258      7261      7262      7263      7262      7264      7262      7265
      7250      7251      7251      7252      7251      7253      7251      7266
      7266      7267      7266      7268      7266      7272      7273      7274
      7272      7269      7269      7273      7269      7270      7269      7271
      7274      7275      7274      7276      7274      7277      7277      7278
      7277      7285      7277      7279      7285      7286      7285      7287
      7285      7288      7279      7280      7280      7282      7280      7281
      7282      7283      7282      7284      7282      7294      7294      7295
      7294      7296      7294      7297      7297      7298      7297      7299
      7297      7300      7300      7301      7300      7302      7300      7303
      7303      7304      7303      7305      7303      7306      7306      7307
      7306      7308      7306      7309      7309      7310      7309      7311
      7309      7312      7312      7313      7312      7314      7314      7315
      7314      7316      7316      7317      7316      7318      7316      7319
      7319      7320      7319      7321      7319      7322      7322      7323
      7322      7324      7322      7325      7325      7326      7325      7327
      7325      7328      7328      7329      7328      7330      7328      7331
      7331      7332      7331      7333      7331      7334      7334      7335
      7334      7336      7334      7337      7337      7338      7337      7339
      7337      7340      7288      7289      7289      7291      7289      7290
      7291      7292      7291      7293      7291      7341      7341      7342
      7341      7343      7341      7344      7344      7345      7344      7346
      7344      7347      7347      7348      7347      7349      7347      7350
      7350      7351      7350      7352      7350      7353      7353      7354
      7353      7355      7353      7356      7356      7357      7356      7358
      7356      7359      7359      7360      7359      7361      7359      7362
      7362      7363      7362      7364      7362      7365      7365      7366
      7365      7367      7365      7368      7368      7369      7368      7370
      7368      7371      7371      7372      7371      7373      7371      7374
      7374      7375      7374      7376      7374      7377      7377      7378
      7377      7379      7377      7380      7380      7381      7380      7382
      7380      7383      7384      7385      7384      7386      7384      7387
      7384      7388      7392      7390      7390      7388      7390      7391
      7388      7389      7388      7393      7401      7400      7393      7394
      7393      7395      7393      7399      7399      7396      7396      7400
      7396      7397      7396      7398      7401      7402      7401      7403
      7401      7404      7404      7405      7404      7412      7404      7406
      7412      7413      7412      7414      7412      7415      7406      7407
      7407      7409      7407      7408      7409      7410      7409      7411
      7409      7421      7421      7422      7421      7423      7421      7424
      7424      7425      7424      7426      7424      7427      7427      7428
      7427      7429      7427      7430      7430      7431      7430      7432
      7430      7433      7433      7434      7433      7435      7433      7436
      7436      7437      7436      7438      7436      7439      7439      7440
      7439      7441      7441      7442      7441      7443      7443      7444
      7443      7445      7443      7446      7446      7447      7446      7448
      7446      7449      7449      7450      7449      7451      7449      7452
      7452      7453      7452      7454      7452      7455      7455      7456
      7455      7457      7455      7458      7458      7459      7458      7460
      7458      7461      7461      7462      7461      7463      7461      7464
      7464      7465      7464      7466      7464      7467      7415      7416
      7416      7418      7416      7417      7418      7419      7418      7420
      7418      7468      7468      7469      7468      7470      7468      7471
      7471      7472      7471      7473      7471      7474      7474      7475
      7474      7476      7474      7477      7477      7478      7477      7479
      7477      7480      7480      7481      7480      7482      7480      7483
      7483      7484      7483      7485      7483      7486      7486      7487
      7486      7488      7486      7489      7489      7490      7489      7491
      7489      7492      7492      7493      7492      7494      7492      7495
      7495      7496      7495      7497      7495      7498      7498      7499
      7498      7500      7498      7501      7501      7502      7501      7503
      7501      7504      7504      7505      7504      7506      7504      7507
      7507      7508      7507      7509      7507      7510      7511      7515
      7511      7519      7511      7523      7515      7516      7515      7517
      7515      7518      7519      7520      7519      7521      7519      7522
      7523      7524      7523      7525      7523      7526      7511      7512
      7512      7513      7512      7514      7512      7527      7527      7528
      7527      7529      7527      7533      7534      7535      7533      7530
      7530      7534      7530      7531      7530      7532      7535      7536
      7535      7537      7535      7538      7538      7539      7538      7546
      7538      7540      7546      7547      7546      7548      7546      7549
      7540      7541      7541      7543      7541      7542      7543      7544
      7543      7545      7543      7555      7555      7556      7555      7557
      7555      7558      7558      7559      7558      7560      7558      7561
      7561      7562      7561      7563      7561      7564      7564      7565
      7564      7566      7564      7567      7567      7568      7567      7569
      7567      7570      7570      7571      7570      7572      7570      7573
      7573      7574      7573      7575      7575      7576      7575      7577
      7577      7578      7577      7579      7577      7580      7580      7581
      7580      7582      7580      7583      7583      7584      7583      7585
      7583      7586      7586      7587      7586      7588      7586      7589
      7589      7590      7589      7591      7589      7592      7592      7593
      7592      7594      7592      7595      7595      7596      7595      7597
      7595      7598      7598      7599      7598      7600      7598      7601
      7549      7550      7550      7552      7550      7551      7552      7553
      7552      7554      7552      7602      7602      7603      7602      7604
      7602      7605      7605      7606      7605      7607      7605      7608
      7608      7609      7608      7610      7608      7611      7611      7612
      7611      7613      7611      7614      7614      7615      7614      7616
      7614      7617      7617      7618      7617      7619      7617      7620
      7620      7621      7620      7622      7620      7623      7623      7624
      7623      7625      7623      7626      7626      7627      7626      7628
      7626      7629      7629      7630      7629      7631      7629      7632
      7632      7633      7632      7634      7632      7635      7635      7636
      7635      7637      7635      7638      7638      7639      7638      7640
      7638      7641      7641      7642      7641      7643      7641      7644
      7645      7649      7645      7653      7645      7657      7649      7650
      7649      7651      7649      7652      7653      7654      7653      7655
      7653      7656      7657      7658      7657      7659      7657      7660
      7645      7646      7646      7647      7646      7648      7646      7661
      7661      7662      7661      7663      7661      7667      7668      7669
      7667      7664      7664      7668      7664      7665      7664      7666
      7669      7670      7669      7671      7669      7672      7672      7673
      7672      7680      7672      7674      7680      7681      7680      7682
      7680      7683      7674      7675      7675      7677      7675      7676
      7677      7678      7677      7679      7677      7689      7689      7690
      7689      7691      7689      7692      7692      7693      7692      7694
      7692      7695      7695      7696      7695      7697      7695      7698
      7698      7699      7698      7700      7698      7701      7701      7702
      7701      7703      7701      7704      7704      7705      7704      7706
      7704      7707      7707      7708      7707      7709      7709      7710
      7709      7711      7711      7712      7711      7713      7711      7714
      7714      7715      7714      7716      7714      7717      7717      7718
      7717      7719      7717      7720      7720      7721      7720      7722
      7720      7723      7723      7724      7723      7725      7723      7726
      7726      7727      7726      7728      7726      7729      7729      7730
      7729      7731      7729      7732      7732      7733      7732      7734
      7732      7735      7683      7684      7684      7686      7684      7685
      7686      7687      7686      7688      7686      7736      7736      7737
      7736      7738      7736      7739      7739      7740      7739      7741
      7739      7742      7742      7743      7742      7744      7742      7745
      7745      7746      7745      7747      7745      7748      7748      7749
      7748      7750      7748      7751      7751      7752      7751      7753
      7751      7754      7754      7755      7754      7756      7754      7757
      7757      7758      7757      7759      7757      7760      7760      7761
      7760      7762      7760      7763      7763      7764      7763      7765
      7763      7766      7766      7767      7766      7768      7766      7769
      7769      7770      7769      7771      7769      7772      7772      7773
      7772      7774      7772      7775      7775      7776      7775      7777
      7775      7778      7779      7783      7779      7787      7779      7791
      7783      7784      7783      7785      7783      7786      7787      7788
      7787      7789      7787      7790      7791      7792      7791      7793
      7791      7794      7779      7780      7780      7781      7780      7782
      7780      7795      7795      7796      7795      7797      7795      7801
      7802      7803      7801      7798      7798      7802      7798      7799
      7798      7800      7803      7804      7803      7805      7803      7806
      7806      7807      7806      7814      7806      7808      7814      7815
      7814      7816      7814      7817      7808      7809      7809      7811
      7809      7810      7811      7812      7811      7813      7811      7823
      7823      7824      7823      7825      7823      7826      7826      7827
      7826      7828      7826      7829      7829      7830      7829      7831
      7829      7832      7832      7833      7832      7834      7832      7835
      7835      7836      7835      7837      7835      7838      7838      7839
      7838      7840      7838      7841      7841      7842      7841      7843
      7843      7844      7843      7845      7845      7846      7845      7847
      7845      7848      7848      7849      7848      7850      7848      7851
      7851      7852      7851      7853      7851      7854      7854      7855
      7854      7856      7854      7857      7857      7858      7857      7859
      7857      7860      7860      7861      7860      7862      7860      7863
      7863      7864      7863      7865      7863      7866      7866      7867
      7866      7868      7866      7869      7817      7818      7818      7820
      7818      7819      7820      7821      7820      7822      7820      7870
      7870      7871      7870      7872      7870      7873      7873      7874
      7873      7875      7873      7876      7876      7877      7876      7878
      7876      7879      7879      7880      7879      7881      7879      7882
      7882      7883      7882      7884      7882      7885      7885      7886
      7885      7887      7885      7888      7888      7889      7888      7890
      7888      7891      7891      7892      7891      7893      7891      7894
      7894      7895      7894      7896      7894      7897      7897      7898
      7897      7899      7897      7900      7900      7901      7900      7902
      7900      7903      7903      7904      7903      7905      7903      7906
      7906      7907      7906      7908      7906      7909      7909      7910
      7909      7911      7909      7912      7913      7917      7913      7921
      7913      7925      7917      7918      7917      7919      7917      7920
      7921      7922      7921      7923      7921      7924      7925      7926
      7925      7927      7925      7928      7913      7914      7914      7915
      7914      7916      7914      7929      7929      7930      7929      7931
      7929      7935      7936      7937      7935      7932      7932      7936
      7932      7933      7932      7934      7937      7938      7937      7939
      7937      7940      7940      7941      7940      7948      7940      7942
      7948      7949      7948      7950      7948      7951      7942      7943
      7943      7945      7943      7944      7945      7946      7945      7947
      7945      7957      7957      7958      7957      7959      7957      7960
      7960      7961      7960      7962      7960      7963      7963      7964
      7963      7965      7963      7966      7966      7967      7966      7968
      7966      7969      7969      7970      7969      7971      7969      7972
      7972      7973      7972      7974      7972      7975      7975      7976
      7975      7977      7977      7978      7977      7979      7979      7980
      7979      7981      7979      7982      7982      7983      7982      7984
      7982      7985      7985      7986      7985      7987      7985      7988
      7988      7989      7988      7990      7988      7991      7991      7992
      7991      7993      7991      7994      7994      7995      7994      7996
      7994      7997      7997      7998      7997      7999      7997      8000
      8000      8001      8000      8002      8000      8003      7951      7952
      7952      7954      7952      7953      7954      7955      7954      7956
      7954      8004      8004      8005      8004      8006      8004      8007
      8007      8008      8007      8009      8007      8010      8010      8011
      8010      8012      8010      8013      8013      8014      8013      8015
      8013      8016      8016      8017      8016      8018      8016      8019
      8019      8020      8019      8021      8019      8022      8022      8023
      8022      8024      8022      8025      8025      8026      8025      8027
      8025      8028      8028      8029      8028      8030      8028      8031
      8031      8032      8031      8033      8031      8034      8034      8035
      8034      8036      8034      8037      8037      8038      8037      8039
      8037      8040      8040      8041      8040      8042      8040      8043
      8043      8044      8043      8045      8043      8046      8047      8051
      8047      8055      8047      8059      8051      8052      8051      8053
      8051      8054      8055      8056      8055      8057      8055      8058
      8059      8060      8059      8061      8059      8062      8047      8048
      8048      8049      8048      8050      8048      8063      8063      8064
      8063      8065      8063      8069      8070      8071      8069      8066
      8066      8070      8066      8067      8066      8068      8071      8072
      8071      8073      8071      8074      8074      8075      8074      8082
      8074      8076      8082      8083      8082      8084      8082      8085
      8076      8077      8077      8079      8077      8078      8079      8080
      8079      8081      8079      8091      8091      8092      8091      8093
      8091      8094      8094      8095      8094      8096      8094      8097
      8097      8098      8097      8099      8097      8100      8100      8101
      8100      8102      8100      8103      8103      8104      8103      8105
      8103      8106      8106      8107      8106      8108      8106      8109
      8109      8110      8109      8111      8111      8112      8111      8113
      8113      8114      8113      8115      8113      8116      8116      8117
      8116      8118      8116      8119      8119      8120      8119      8121
      8119      8122      8122      8123      8122      8124      8122      8125
      8125      8126      8125      8127      8125      8128      8128      8129
      8128      8130      8128      8131      8131      8132      8131      8133
      8131      8134      8134      8135      8134      8136      8134      8137
      8085      8086      8086      8088      8086      8087      8088      8089
      8088      8090      8088      8138      8138      8139      8138      8140
      8138      8141      8141      8142      8141      8143      8141      8144
      8144      8145      8144      8146      8144      8147      8147      8148
      8147      8149      8147      8150      8150      8151      8150      8152
      8150      8153      8153      8154      8153      8155      8153      8156
      8156      8157      8156      8158      8156      8159      8159      8160
      8159      8161      8159      8162      8162      8163      8162      8164
      8162      8165      8165      8166      8165      8167      8165      8168
      8168      8169      8168      8170      8168      8171      8171      8172
      8171      8173      8171      8174      8174      8175      8174      8176
      8174      8177      8177      8178      8177      8179      8177      8180
      8181      8185      8181      8189      8181      8193      8185      8186
      8185      8187      8185      8188      8189      8190      8189      8191
      8189      8192      8193      8194      8193      8195      8193      8196
      8181      8182      8182      8183      8182      8184      8182      8197
      8197      8198      8197      8199      8197      8203      8204      8205
      8203      8200      8200      8204      8200      8201      8200      8202
      8205      8206      8205      8207      8205      8208      8208      8209
      8208      8216      8208      8210      8216      8217      8216      8218
      8216      8219      8210      8211      8211      8213      8211      8212
      8213      8214      8213      8215      8213      8225      8225      8226
      8225      8227      8225      8228      8228      8229      8228      8230
      8228      8231      8231      8232      8231      8233      8231      8234
      8234      8235      8234      8236      8234      8237      8237      8238
      8237      8239      8237      8240      8240      8241      8240      8242
      8240      8243      8243      8244      8243      8245      8245      8246
      8245      8247      8247      8248      8247      8249      8247      8250
      8250      8251      8250      8252      8250      8253      8253      8254
      8253      8255      8253      8256      8256      8257      8256      8258
      8256      8259      8259      8260      8259      8261      8259      8262
      8262      8263      8262      8264      8262      8265      8265      8266
      8265      8267      8265      8268      8268      8269      8268      8270
      8268      8271      8219      8220      8220      8222      8220      8221
      8222      8223      8222      8224      8222      8272      8272      8273
      8272      8274      8272      8275      8275      8276      8275      8277
      8275      8278      8278      8279      8278      8280      8278      8281
      8281      8282      8281      8283      8281      8284      8284      8285
      8284      8286      8284      8287      8287      8288      8287      8289
      8287      8290      8290      8291      8290      8292      8290      8293
      8293      8294      8293      8295      8293      8296      8296      8297
      8296      8298      8296      8299      8299      8300      8299      8301
      8299      8302      8302      8303      8302      8304      8302      8305
      8305      8306      8305      8307      8305      8308      8308      8309
      8308      8310      8308      8311      8311      8312      8311      8313
      8311      8314      8315      8319      8315      8323      8315      8327
      8319      8320      8319      8321      8319      8322      8323      8324
      8323      8325      8323      8326      8327      8328      8327      8329
      8327      8330      8315      8316      8316      8317      8316      8318
      8316      8331      8331      8332      8331      8333      8331      8337
      8338      8339      8337      8334      8334      8338      8334      8335
      8334      8336      8339      8340      8339      8341      8339      8342
      8342      8343      8342      8350      8342      8344      8350      8351
      8350      8352      8350      8353      8344      8345      8345      8347
      8345      8346      8347      8348      8347      8349      8347      8359
      8359      8360      8359      8361      8359      8362      8362      8363
      8362      8364      8362      8365      8365      8366      8365      8367
      8365      8368      8368      8369      8368      8370      8368      8371
      8371      8372      8371      8373      8371      8374      8374      8375
      8374      8376      8374      8377      8377      8378      8377      8379
      8379      8380      8379      8381      8381      8382      8381      8383
      8381      8384      8384      8385      8384      8386      8384      8387
      8387      8388      8387      8389      8387      8390      8390      8391
      8390      8392      8390      8393      8393      8394      8393      8395
      8393      8396      8396      8397      8396      8398      8396      8399
      8399      8400      8399      8401      8399      8402      8402      8403
      8402      8404      8402      8405      8353      8354      8354      8356
      8354      8355      8356      8357      8356      8358      8356      8406
      8406      8407      8406      8408      8406      8409      8409      8410
      8409      8411      8409      8412      8412      8413      8412      8414
      8412      8415      8415      8416      8415      8417      8415      8418
      8418      8419      8418      8420      8418      8421      8421      8422
      8421      8423      8421      8424      8424      8425      8424      8426
      8424      8427      8427      8428      8427      8429      8427      8430
      8430      8431      8430      8432      8430      8433      8433      8434
      8433      8435      8433      8436      8436      8437      8436      8438
      8436      8439      8439      8440      8439      8441      8439      8442
      8442      8443      8442      8444      8442      8445      8445      8446
      8445      8447      8445      8448      8449      8453      8449      8457
      8449      8461      8453      8454      8453      8455      8453      8456
      8457      8458      8457      8459      8457      8460      8461      8462
      8461      8463      8461      8464      8449      8450      8450      8451
      8450      8452      8450      8465      8465      8466      8465      8467
      8465      8471      8472      8473      8471      8468      8468      8472
      8468      8469      8468      8470      8473      8474      8473      8475
      8473      8476      8476      8477      8476      8484      8476      8478
      8484      8485      8484      8486      8484      8487      8478      8479
      8479      8481      8479      8480      8481      8482      8481      8483
      8481      8493      8493      8494      8493      8495      8493      8496
      8496      8497      8496      8498      8496      8499      8499      8500
      8499      8501      8499      8502      8502      8503      8502      8504
      8502      8505      8505      8506      8505      8507      8505      8508
      8508      8509      8508      8510      8508      8511      8511      8512
      8511      8513      8513      8514      8513      8515      8515      8516
      8515      8517      8515      8518      8518      8519      8518      8520
      8518      8521      8521      8522      8521      8523      8521      8524
      8524      8525      8524      8526      8524      8527      8527      8528
      8527      8529      8527      8530      8530      8531      8530      8532
      8530      8533      8533      8534      8533      8535      8533      8536
      8536      8537      8536      8538      8536      8539      8487      8488
      8488      8490      8488      8489      8490      8491      8490      8492
      8490      8540      8540      8541      8540      8542      8540      8543
      8543      8544      8543      8545      8543      8546      8546      8547
      8546      8548      8546      8549      8549      8550      8549      8551
      8549      8552      8552      8553      8552      8554      8552      8555
      8555      8556      8555      8557      8555      8558      8558      8559
      8558      8560      8558      8561      8561      8562      8561      8563
      8561      8564      8564      8565      8564      8566      8564      8567
      8567      8568      8567      8569      8567      8570      8570      8571
      8570      8572      8570      8573      8573      8574      8573      8575
      8573      8576      8576      8577      8576      8578      8576      8579
      8579      8580      8579      8581      8579      8582      8583      8587
      8583      8591      8583      8595      8587      8588      8587      8589
      8587      8590      8591      8592      8591      8593      8591      8594
      8595      8596      8595      8597      8595      8598      8583      8584
      8584      8585      8584      8586      8584      8599      8599      8600
      8599      8601      8599      8605      8606      8607      8605      8602
      8602      8606      8602      8603      8602      8604      8607      8608
      8607      8609      8607      8610      8610      8611      8610      8618
      8610      8612      8618      8619      8618      8620      8618      8621
      8612      8613      8613      8615      8613      8614      8615      8616
      8615      8617      8615      8627      8627      8628      8627      8629
      8627      8630      8630      8631      8630      8632      8630      8633
      8633      8634      8633      8635      8633      8636      8636      8637
      8636      8638      8636      8639      8639      8640      8639      8641
      8639      8642      8642      8643      8642      8644      8642      8645
      8645      8646      8645      8647      8647      8648      8647      8649
      8649      8650      8649      8651      8649      8652      8652      8653
      8652      8654      8652      8655      8655      8656      8655      8657
      8655      8658      8658      8659      8658      8660      8658      8661
      8661      8662      8661      8663      8661      8664      8664      8665
      8664      8666      8664      8667      8667      8668      8667      8669
      8667      8670      8670      8671      8670      8672      8670      8673
      8621      8622      8622      8624      8622      8623      8624      8625
      8624      8626      8624      8674      8674      8675      8674      8676
      8674      8677      8677      8678      8677      8679      8677      8680
      8680      8681      8680      8682      8680      8683      8683      8684
      8683      8685      8683      8686      8686      8687      8686      8688
      8686      8689      8689      8690      8689      8691      8689      8692
      8692      8693      8692      8694      8692      8695      8695      8696
      8695      8697      8695      8698      8698      8699      8698      8700
      8698      8701      8701      8702      8701      8703      8701      8704
      8704      8705      8704      8706      8704      8707      8707      8708
      8707      8709      8707      8710      8710      8711      8710      8712
      8710      8713      8713      8714      8713      8715      8713      8716
      8717      8721      8717      8725      8717      8729      8721      8722
      8721      8723      8721      8724      8725      8726      8725      8727
      8725      8728      8729      8730      8729      8731      8729      8732
      8717      8718      8718      8719      8718      8720      8718      8733
      8733      8734      8733      8735      8733      8739      8740      8741
      8739      8736      8736      8740      8736      8737      8736      8738
      8741      8742      8741      8743      8741      8744      8744      8745
      8744      8752      8744      8746      8752      8753      8752      8754
      8752      8755      8746      8747      8747      8749      8747      8748
      8749      8750      8749      8751      8749      8761      8761      8762
      8761      8763      8761      8764      8764      8765      8764      8766
      8764      8767      8767      8768      8767      8769      8767      8770
      8770      8771      8770      8772      8770      8773      8773      8774
      8773      8775      8773      8776      8776      8777      8776      8778
      8776      8779      8779      8780      8779      8781      8781      8782
      8781      8783      8783      8784      8783      8785      8783      8786
      8786      8787      8786      8788      8786      8789      8789      8790
      8789      8791      8789      8792      8792      8793      8792      8794
      8792      8795      8795      8796      8795      8797      8795      8798
      8798      8799      8798      8800      8798      8801      8801      8802
      8801      8803      8801      8804      8804      8805      8804      8806
      8804      8807      8755      8756      8756      8758      8756      8757
      8758      8759      8758      8760      8758      8808      8808      8809
      8808      8810      8808      8811      8811      8812      8811      8813
      8811      8814      8814      8815      8814      8816      8814      8817
      8817      8818      8817      8819      8817      8820      8820      8821
      8820      8822      8820      8823      8823      8824      8823      8825
      8823      8826      8826      8827      8826      8828      8826      8829
      8829      8830      8829      8831      8829      8832      8832      8833
      8832      8834      8832      8835      8835      8836      8835      8837
      8835      8838      8838      8839      8838      8840      8838      8841
      8841      8842      8841      8843      8841      8844      8844      8845
      8844      8846      8844      8847      8847      8848      8847      8849
      8847      8850      8851      8855      8851      8859      8851      8863
      8855      8856      8855      8857      8855      8858      8859      8860
      8859      8861      8859      8862      8863      8864      8863      8865
      8863      8866      8851      8852      8852      8853      8852      8854
      8852      8867      8867      8868      8867      8869      8867      8873
      8874      8875      8873      8870      8870      8874      8870      8871
      8870      8872      8875      8876      8875      8877      8875      8878
      8878      8879      8878      8886      8878      8880      8886      8887
      8886      8888      8886      8889      8880      8881      8881      8883
      8881      8882      8883      8884      8883      8885      8883      8895
      8895      8896      8895      8897      8895      8898      8898      8899
      8898      8900      8898      8901      8901      8902      8901      8903
      8901      8904      8904      8905      8904      8906      8904      8907
      8907      8908      8907      8909      8907      8910      8910      8911
      8910      8912      8910      8913      8913      8914      8913      8915
      8915      8916      8915      8917      8917      8918      8917      8919
      8917      8920      8920      8921      8920      8922      8920      8923
      8923      8924      8923      8925      8923      8926      8926      8927
      8926      8928      8926      8929      8929      8930      8929      8931
      8929      8932      8932      8933      8932      8934      8932      8935
      8935      8936      8935      8937      8935      8938      8938      8939
      8938      8940      8938      8941      8889      8890      8890      8892
      8890      8891      8892      8893      8892      8894      8892      8942
      8942      8943      8942      8944      8942      8945      8945      8946
      8945      8947      8945      8948      8948      8949      8948      8950
      8948      8951      8951      8952      8951      8953      8951      8954
      8954      8955      8954      8956      8954      8957      8957      8958
      8957      8959      8957      8960      8960      8961      8960      8962
      8960      8963      8963      8964      8963      8965      8963      8966
      8966      8967      8966      8968      8966      8969      8969      8970
      8969      8971      8969      8972      8972      8973      8972      8974
      8972      8975      8975      8976      8975      8977      8975      8978
      8978      8979      8978      8980      8978      8981      8981      8982
      8981      8983      8981      8984      8985      8989      8985      8993
      8985      8997      8989      8990      8989      8991      8989      8992
      8993      8994      8993      8995      8993      8996      8997      8998
      8997      8999      8997      9000      8985      8986      8986      8987
      8986      8988      8986      9001      9001      9002      9001      9003
      9001      9007      9008      9009      9007      9004      9004      9008
      9004      9005      9004      9006      9009      9010      9009      9011
      9009      9012      9012      9013      9012      9020      9012      9014
      9020      9021      9020      9022      9020      9023      9014      9015
      9015      9017      9015      9016      9017      9018      9017      9019
      9017      9029      9029      9030      9029      9031      9029      9032
      9032      9033      9032      9034      9032      9035      9035      9036
      9035      9037      9035      9038      9038      9039      9038      9040
      9038      9041      9041      9042      9041      9043      9041      9044
      9044      9045      9044      9046      9044      9047      9047      9048
      9047      9049      9049      9050      9049      9051      9051      9052
      9051      9053      9051      9054      9054      9055      9054      9056
      9054      9057      9057      9058      9057      9059      9057      9060
      9060      9061      9060      9062      9060      9063      9063      9064
      9063      9065      9063      9066      9066      9067      9066      9068
      9066      9069      9069      9070      9069      9071      9069      9072
      9072      9073      9072      9074      9072      9075      9023      9024
      9024      9026      9024      9025      9026      9027      9026      9028
      9026      9076      9076      9077      9076      9078      9076      9079
      9079      9080      9079      9081      9079      9082      9082      9083
      9082      9084      9082      9085      9085      9086      9085      9087
      9085      9088      9088      9089      9088      9090      9088      9091
      9091      9092      9091      9093      9091      9094      9094      9095
      9094      9096      9094      9097      9097      9098      9097      9099
      9097      9100      9100      9101      9100      9102      9100      9103
      9103      9104      9103      9105      9103      9106      9106      9107
      9106      9108      9106      9109      9109      9110      9109      9111
      9109      9112      9112      9113      9112      9114      9112      9115
      9115      9116      9115      9117      9115      9118      9119      9123
      9119      9127      9119      9131      9123      9124      9123      9125
      9123      9126      9127      9128      9127      9129      9127      9130
      9131      9132      9131      9133      9131      9134      9119      9120
      9120      9121      9120      9122      9120      9135      9135      9136
      9135      9137      9135      9141      9142      9143      9141      9138
      9138      9142      9138      9139      9138      9140      9143      9144
      9143      9145      9143      9146      9146      9147      9146      9154
      9146      9148      9154      9155      9154      9156      9154      9157
      9148      9149      9149      9151      9149      9150      9151      9152
      9151      9153      9151      9163      9163      9164      9163      9165
      9163      9166      9166      9167      9166      9168      9166      9169
      9169      9170      9169      9171      9169      9172      9172      9173
      9172      9174      9172      9175      9175      9176      9175      9177
      9175      9178      9178      9179      9178      9180      9178      9181
      9181      9182      9181      9183      9183      9184      9183      9185
      9185      9186      9185      9187      9185      9188      9188      9189
      9188      9190      9188      9191      9191      9192      9191      9193
      9191      9194      9194      9195      9194      9196      9194      9197
      9197      9198      9197      9199      9197      9200      9200      9201
      9200      9202      9200      9203      9203      9204      9203      9205
      9203      9206      9206      9207      9206      9208      9206      9209
      9157      9158      9158      9160      9158      9159      9160      9161
      9160      9162      9160      9210      9210      9211      9210      9212
      9210      9213      9213      9214      9213      9215      9213      9216
      9216      9217      9216      9218      9216      9219      9219      9220
      9219      9221      9219      9222      9222      9223      9222      9224
      9222      9225      9225      9226      9225      9227      9225      9228
      9228      9229      9228      9230      9228      9231      9231      9232
      9231      9233      9231      9234      9234      9235      9234      9236
      9234      9237      9237      9238      9237      9239      9237      9240
      9240      9241      9240      9242      9240      9243      9243      9244
      9243      9245      9243      9246      9246      9247      9246      9248
      9246      9249      9249      9250      9249      9251      9249      9252
      9253      9257      9253      9261      9253      9265      9257      9258
      9257      9259      9257      9260      9261      9262      9261      9263
      9261      9264      9265      9266      9265      9267      9265      9268
      9253      9254      9254      9255      9254      9256      9254      9269
      9269      9270      9269      9271      9269      9275      9276      9277
      9275      9272      9272      9276      9272      9273      9272      9274
      9277      9278      9277      9279      9277      9280      9280      9281
      9280      9288      9280      9282      9288      9289      9288      9290
      9288      9291      9282      9283      9283      9285      9283      9284
      9285      9286      9285      9287      9285      9297      9297      9298
      9297      9299      9297      9300      9300      9301      9300      9302
      9300      9303      9303      9304      9303      9305      9303      9306
      9306      9307      9306      9308      9306      9309      9309      9310
      9309      9311      9309      9312      9312      9313      9312      9314
      9312      9315      9315      9316      9315      9317      9317      9318
      9317      9319      9319      9320      9319      9321      9319      9322
      9322      9323      9322      9324      9322      9325      9325      9326
      9325      9327      9325      9328      9328      9329      9328      9330
      9328      9331      9331      9332      9331      9333      9331      9334
      9334      9335      9334      9336      9334      9337      9337      9338
      9337      9339      9337      9340      9340      9341      9340      9342
      9340      9343      9291      9292      9292      9294      9292      9293
      9294      9295      9294      9296      9294      9344      9344      9345
      9344      9346      9344      9347      9347      9348      9347      9349
      9347      9350      9350      9351      9350      9352      9350      9353
      9353      9354      9353      9355      9353      9356      9356      9357
      9356      9358      9356      9359      9359      9360      9359      9361
      9359      9362      9362      9363      9362      9364      9362      9365
      9365      9366      9365      9367      9365      9368      9368      9369
      9368      9370      9368      9371      9371      9372      9371      9373
      9371      9374      9374      9375      9374      9376      9374      9377
      9377      9378      9377      9379      9377      9380      9380      9381
      9380      9382      9380      9383      9383      9384      9383      9385
      9383      9386      9387      9391      9387      9395      9387      9399
      9391      9392      9391      9393      9391      9394      9395      9396
      9395      9397      9395      9398      9399      9400      9399      9401
      9399      9402      9387      9388      9388      9389      9388      9390
      9388      9403      9403      9404      9403      9405      9403      9409
      9410      9411      9409      9406      9406      9410      9406      9407
      9406      9408      9411      9412      9411      9413      9411      9414
      9414      9415      9414      9422      9414      9416      9422      9423
      9422      9424      9422      9425      9416      9417      9417      9419
      9417      9418      9419      9420      9419      9421      9419      9431
      9431      9432      9431      9433      9431      9434      9434      9435
      9434      9436      9434      9437      9437      9438      9437      9439
      9437      9440      9440      9441      9440      9442      9440      9443
      9443      9444      9443      9445      9443      9446      9446      9447
      9446      9448      9446      9449      9449      9450      9449      9451
      9451      9452      9451      9453      9453      9454      9453      9455
      9453      9456      9456      9457      9456      9458      9456      9459
      9459      9460      9459      9461      9459      9462      9462      9463
      9462      9464      9462      9465      9465      9466      9465      9467
      9465      9468      9468      9469      9468      9470      9468      9471
      9471      9472      9471      9473      9471      9474      9474      9475
      9474      9476      9474      9477      9425      9426      9426      9428
      9426      9427      9428      9429      9428      9430      9428      9478
      9478      9479      9478      9480      9478      9481      9481      9482
      9481      9483      9481      9484      9484      9485      9484      9486
      9484      9487      9487      9488      9487      9489      9487      9490
      9490      9491      9490      9492      9490      9493      9493      9494
      9493      9495      9493      9496      9496      9497      9496      9498
      9496      9499      9499      9500      9499      9501      9499      9502
      9502      9503      9502      9504      9502      9505      9505      9506
      9505      9507      9505      9508      9508      9509      9508      9510
      9508      9511      9511      9512      9511      9513      9511      9514
      9514      9515      9514      9516      9514      9517      9517      9518
      9517      9519      9517      9520      9521      9522      9521      9523
      9521      9524      9521      9525      9529      9527      9527      9525
      9527      9528      9525      9526      9525      9530      9538      9537
      9530      9531      9530      9532      9530      9536      9536      9533
      9533      9537      9533      9534      9533      9535      9538      9539
      9538      9540      9538      9541      9541      9542      9541      9549
      9541      9543      9549      9550      9549      9551      9549      9552
      9543      9544      9544      9546      9544      9545      9546      9547
      9546      9548      9546      9558      9558      9559      9558      9560
      9558      9561      9561      9562      9561      9563      9561      9564
      9564      9565      9564      9566      9564      9567      9567      9568
      9567      9569      9567      9570      9570      9571      9570      9572
      9570      9573      9573      9574      9573      9575      9573      9576
      9576      9577      9576      9578      9578      9579      9578      9580
      9580      9581      9580      9582      9580      9583      9583      9584
      9583      9585      9583      9586      9586      9587      9586      9588
      9586      9589      9589      9590      9589      9591      9589      9592
      9592      9593      9592      9594      9592      9595      9595      9596
      9595      9597      9595      9598      9598      9599      9598      9600
      9598      9601      9601      9602      9601      9603      9601      9604
      9552      9553      9553      9555      9553      9554      9555      9556
      9555      9557      9555      9605      9605      9606      9605      9607
      9605      9608      9608      9609      9608      9610      9608      9611
      9611      9612      9611      9613      9611      9614      9614      9615
      9614      9616      9614      9617      9617      9618      9617      9619
      9617      9620      9620      9621      9620      9622      9620      9623
      9623      9624      9623      9625      9623      9626      9626      9627
      9626      9628      9626      9629      9629      9630      9629      9631
      9629      9632      9632      9633      9632      9634      9632      9635
      9635      9636      9635      9637      9635      9638      9638      9639
      9638      9640      9638      9641      9641      9642      9641      9643
      9641      9644      9644      9645      9644      9646      9644      9647
      9648      9649      9648      9650      9648      9651      9648      9652
      9656      9654      9654      9652      9654      9655      9652      9653
      9652      9657      9665      9664      9657      9658      9657      9659
      9657      9663      9663      9660      9660      9664      9660      9661
      9660      9662      9665      9666      9665      9667      9665      9668
      9668      9669      9668      9676      9668      9670      9676      9677
      9676      9678      9676      9679      9670      9671      9671      9673
      9671      9672      9673      9674      9673      9675      9673      9685
      9685      9686      9685      9687      9685      9688      9688      9689
      9688      9690      9688      9691      9691      9692      9691      9693
      9691      9694      9694      9695      9694      9696      9694      9697
      9697      9698      9697      9699      9697      9700      9700      9701
      9700      9702      9700      9703      9703      9704      9703      9705
      9705      9706      9705      9707      9707      9708      9707      9709
      9707      9710      9710      9711      9710      9712      9710      9713
      9713      9714      9713      9715      9713      9716      9716      9717
      9716      9718      9716      9719      9719      9720      9719      9721
      9719      9722      9722      9723      9722      9724      9722      9725
      9725      9726      9725      9727      9725      9728      9728      9729
      9728      9730      9728      9731      9679      9680      9680      9682
      9680      9681      9682      9683      9682      9684      9682      9732
      9732      9733      9732      9734      9732      9735      9735      9736
      9735      9737      9735      9738      9738      9739      9738      9740
      9738      9741      9741      9742      9741      9743      9741      9744
      9744      9745      9744      9746      9744      9747      9747      9748
      9747      9749      9747      9750      9750      9751      9750      9752
      9750      9753      9753      9754      9753      9755      9753      9756
      9756      9757      9756      9758      9756      9759      9759      9760
      9759      9761      9759      9762      9762      9763      9762      9764
      9762      9765      9765      9766      9765      9767      9765      9768
      9768      9769      9768      9770      9768      9771      9771      9772
      9771      9773      9771      9774      9775      9779      9775      9783
      9775      9787      9779      9780      9779      9781      9779      9782
      9783      9784      9783      9785      9783      9786      9787      9788
      9787      9789      9787      9790      9775      9776      9776      9777
      9776      9778      9776      9791      9791      9792      9791      9793
      9791      9797      9798      9799      9797      9794      9794      9798
      9794      9795      9794      9796      9799      9800      9799      9801
      9799      9802      9802      9803      9802      9810      9802      9804
      9810      9811      9810      9812      9810      9813      9804      9805
      9805      9807      9805      9806      9807      9808      9807      9809
      9807      9819      9819      9820      9819      9821      9819      9822
      9822      9823      9822      9824      9822      9825      9825      9826
      9825      9827      9825      9828      9828      9829      9828      9830
      9828      9831      9831      9832      9831      9833      9831      9834
      9834      9835      9834      9836      9834      9837      9837      9838
      9837      9839      9839      9840      9839      9841      9841      9842
      9841      9843      9841      9844      9844      9845      9844      9846
      9844      9847      9847      9848      9847      9849      9847      9850
      9850      9851      9850      9852      9850      9853      9853      9854
      9853      9855      9853      9856      9856      9857      9856      9858
      9856      9859      9859      9860      9859      9861      9859      9862
      9862      9863      9862      9864      9862      9865      9813      9814
      9814      9816      9814      9815      9816      9817      9816      9818
      9816      9866      9866      9867      9866      9868      9866      9869
      9869      9870      9869      9871      9869      9872      9872      9873
      9872      9874      9872      9875      9875      9876      9875      9877
      9875      9878      9878      9879      9878      9880      9878      9881
      9881      9882      9881      9883      9881      9884      9884      9885
      9884      9886      9884      9887      9887      9888      9887      9889
      9887      9890      9890      9891      9890      9892      9890      9893
      9893      9894      9893      9895      9893      9896      9896      9897
      9896      9898      9896      9899      9899      9900      9899      9901
      9899      9902      9902      9903      9902      9904      9902      9905
      9905      9906      9905      9907      9905      9908      9909      9913
      9909      9917      9909      9921      9913      9914      9913      9915
      9913      9916      9917      9918      9917      9919      9917      9920
      9921      9922      9921      9923      9921      9924      9909      9910
      9910      9911      9910      9912      9910      9925      9925      9926
      9925      9927      9925      9931      9932      9933      9931      9928
      9928      9932      9928      9929      9928      9930      9933      9934
      9933      9935      9933      9936      9936      9937      9936      9944
      9936      9938      9944      9945      9944      9946      9944      9947
      9938      9939      9939      9941      9939      9940      9941      9942
      9941      9943      9941      9953      9953      9954      9953      9955
      9953      9956      9956      9957      9956      9958      9956      9959
      9959      9960      9959      9961      9959      9962      9962      9963
      9962      9964      9962      9965      9965      9966      9965      9967
      9965      9968      9968      9969      9968      9970      9968      9971
      9971      9972      9971      9973      9973      9974      9973      9975
      9975      9976      9975      9977      9975      9978      9978      9979
      9978      9980      9978      9981      9981      9982      9981      9983
      9981      9984      9984      9985      9984      9986      9984      9987
      9987      9988      9987      9989      9987      9990      9990      9991
      9990      9992      9990      9993      9993      9994      9993      9995
      9993      9996      9996      9997      9996      9998      9996      9999
      9947      9948      9948      9950      9948      9949      9950      9951
      9950      9952      9950     10000     10000     10001     10000     10002
     10000     10003     10003     10004     10003     10005     10003     10006
     10006     10007     10006     10008     10006     10009     10009     10010
     10009     10011     10009     10012     10012     10013     10012     10014
     10012     10015     10015     10016     10015     10017     10015     10018
     10018     10019     10018     10020     10018     10021     10021     10022
     10021     10023     10021     10024     10024     10025     10024     10026
     10024     10027     10027     10028     10027     10029     10027     10030
     10030     10031     10030     10032     10030     10033     10033     10034
     10033     10035     10033     10036     10036     10037     10036     10038
     10036     10039     10039     10040     10039     10041     10039     10042
     10043     10047     10043     10051     10043     10055     10047     10048
     10047     10049     10047     10050     10051     10052     10051     10053
     10051     10054     10055     10056     10055     10057     10055     10058
     10043     10044     10044     10045     10044     10046     10044     10059
     10059     10060     10059     10061     10059     10065     10066     10067
     10065     10062     10062     10066     10062     10063     10062     10064
     10067     10068     10067     10069     10067     10070     10070     10071
     10070     10078     10070     10072     10078     10079     10078     10080
     10078     10081     10072     10073     10073     10075     10073     10074
     10075     10076     10075     10077     10075     10087     10087     10088
     10087     10089     10087     10090     10090     10091     10090     10092
     10090     10093     10093     10094     10093     10095     10093     10096
     10096     10097     10096     10098     10096     10099     10099     10100
     10099     10101     10099     10102     10102     10103     10102     10104
     10102     10105     10105     10106     10105     10107     10107     10108
     10107     10109     10109     10110     10109     10111     10109     10112
     10112     10113     10112     10114     10112     10115     10115     10116
     10115     10117     10115     10118     10118     10119     10118     10120
     10118     10121     10121     10122     10121     10123     10121     10124
     10124     10125     10124     10126     10124     10127     10127     10128
     10127     10129     10127     10130     10130     10131     10130     10132
     10130     10133     10081     10082     10082     10084     10082     10083
     10084     10085     10084     10086     10084     10134     10134     10135
     10134     10136     10134     10137     10137     10138     10137     10139
     10137     10140     10140     10141     10140     10142     10140     10143
     10143     10144     10143     10145     10143     10146     10146     10147
     10146     10148     10146     10149     10149     10150     10149     10151
     10149     10152     10152     10153     10152     10154     10152     10155
     10155     10156     10155     10157     10155     10158     10158     10159
     10158     10160     10158     10161     10161     10162     10161     10163
     10161     10164     10164     10165     10164     10166     10164     10167
     10167     10168     10167     10169     10167     10170     10170     10171
     10170     10172     10170     10173     10173     10174     10173     10175
     10173     10176     10177     10181     10177     10185     10177     10189
     10181     10182     10181     10183     10181     10184     10185     10186
     10185     10187     10185     10188     10189     10190     10189     10191
     10189     10192     10177     10178     10178     10179     10178     10180
     10178     10193     10193     10194     10193     10195     10193     10199
     10200     10201     10199     10196     10196     10200     10196     10197
     10196     10198     10201     10202     10201     10203     10201     10204
     10204     10205     10204     10212     10204     10206     10212     10213
     10212     10214     10212     10215     10206     10207     10207     10209
     10207     10208     10209     10210     10209     10211     10209     10221
     10221     10222     10221     10223     10221     10224     10224     10225
     10224     10226     10224     10227     10227     10228     10227     10229
     10227     10230     10230     10231     10230     10232     10230     10233
     10233     10234     10233     10235     10233     10236     10236     10237
     10236     10238     10236     10239     10239     10240     10239     10241
     10241     10242     10241     10243     10243     10244     10243     10245
     10243     10246     10246     10247     10246     10248     10246     10249
     10249     10250     10249     10251     10249     10252     10252     10253
     10252     10254     10252     10255     10255     10256     10255     10257
     10255     10258     10258     10259     10258     10260     10258     10261
     10261     10262     10261     10263     10261     10264     10264     10265
     10264     10266     10264     10267     10215     10216     10216     10218
     10216     10217     10218     10219     10218     10220     10218     10268
     10268     10269     10268     10270     10268     10271     10271     10272
     10271     10273     10271     10274     10274     10275     10274     10276
     10274     10277     10277     10278     10277     10279     10277     10280
     10280     10281     10280     10282     10280     10283     10283     10284
     10283     10285     10283     10286     10286     10287     10286     10288
     10286     10289     10289     10290     10289     10291     10289     10292
     10292     10293     10292     10294     10292     10295     10295     10296
     10295     10297     10295     10298     10298     10299     10298     10300
     10298     10301     10301     10302     10301     10303     10301     10304
     10304     10305     10304     10306     10304     10307     10307     10308
     10307     10309     10307     10310     10311     10315     10311     10319
     10311     10323     10315     10316     10315     10317     10315     10318
     10319     10320     10319     10321     10319     10322     10323     10324
     10323     10325     10323     10326     10311     10312     10312     10313
     10312     10314     10312     10327     10327     10328     10327     10329
     10327     10333     10334     10335     10333     10330     10330     10334
     10330     10331     10330     10332     10335     10336     10335     10337
     10335     10338     10338     10339     10338     10346     10338     10340
     10346     10347     10346     10348     10346     10349     10340     10341
     10341     10343     10341     10342     10343     10344     10343     10345
     10343     10355     10355     10356     10355     10357     10355     10358
     10358     10359     10358     10360     10358     10361     10361     10362
     10361     10363     10361     10364     10364     10365     10364     10366
     10364     10367     10367     10368     10367     10369     10367     10370
     10370     10371     10370     10372     10370     10373     10373     10374
     10373     10375     10375     10376     10375     10377     10377     10378
     10377     10379     10377     10380     10380     10381     10380     10382
     10380     10383     10383     10384     10383     10385     10383     10386
     10386     10387     10386     10388     10386     10389     10389     10390
     10389     10391     10389     10392     10392     10393     10392     10394
     10392     10395     10395     10396     10395     10397     10395     10398
     10398     10399     10398     10400     10398     10401     10349     10350
     10350     10352     10350     10351     10352     10353     10352     10354
     10352     10402     10402     10403     10402     10404     10402     10405
     10405     10406     10405     10407     10405     10408     10408     10409
     10408     10410     10408     10411     10411     10412     10411     10413
     10411     10414     10414     10415     10414     10416     10414     10417
     10417     10418     10417     10419     10417     10420     10420     10421
     10420     10422     10420     10423     10423     10424     10423     10425
     10423     10426     10426     10427     10426     10428     10426     10429
     10429     10430     10429     10431     10429     10432     10432     10433
     10432     10434     10432     10435     10435     10436     10435     10437
     10435     10438     10438     10439     10438     10440     10438     10441
     10441     10442     10441     10443     10441     10444     10445     10449
     10445     10453     10445     10457     10449     10450     10449     10451
     10449     10452     10453     10454     10453     10455     10453     10456
     10457     10458     10457     10459     10457     10460     10445     10446
     10446     10447     10446     10448     10446     10461     10461     10462
     10461     10463     10461     10467     10468     10469     10467     10464
     10464     10468     10464     10465     10464     10466     10469     10470
     10469     10471     10469     10472     10472     10473     10472     10480
     10472     10474     10480     10481     10480     10482     10480     10483
     10474     10475     10475     10477     10475     10476     10477     10478
     10477     10479     10477     10489     10489     10490     10489     10491
     10489     10492     10492     10493     10492     10494     10492     10495
     10495     10496     10495     10497     10495     10498     10498     10499
     10498     10500     10498     10501     10501     10502     10501     10503
     10501     10504     10504     10505     10504     10506     10504     10507
     10507     10508     10507     10509     10509     10510     10509     10511
     10511     10512     10511     10513     10511     10514     10514     10515
     10514     10516     10514     10517     10517     10518     10517     10519
     10517     10520     10520     10521     10520     10522     10520     10523
     10523     10524     10523     10525     10523     10526     10526     10527
     10526     10528     10526     10529     10529     10530     10529     10531
     10529     10532     10532     10533     10532     10534     10532     10535
     10483     10484     10484     10486     10484     10485     10486     10487
     10486     10488     10486     10536     10536     10537     10536     10538
     10536     10539     10539     10540     10539     10541     10539     10542
     10542     10543     10542     10544     10542     10545     10545     10546
     10545     10547     10545     10548     10548     10549     10548     10550
     10548     10551     10551     10552     10551     10553     10551     10554
     10554     10555     10554     10556     10554     10557     10557     10558
     10557     10559     10557     10560     10560     10561     10560     10562
     10560     10563     10563     10564     10563     10565     10563     10566
     10566     10567     10566     10568     10566     10569     10569     10570
     10569     10571     10569     10572     10572     10573     10572     10574
     10572     10575     10575     10576     10575     10577     10575     10578
     10579     10583     10579     10587     10579     10591     10583     10584
     10583     10585     10583     10586     10587     10588     10587     10589
     10587     10590     10591     10592     10591     10593     10591     10594
     10579     10580     10580     10581     10580     10582     10580     10595
     10595     10596     10595     10597     10595     10601     10602     10603
     10601     10598     10598     10602     10598     10599     10598     10600
     10603     10604     10603     10605     10603     10606     10606     10607
     10606     10614     10606     10608     10614     10615     10614     10616
     10614     10617     10608     10609     10609     10611     10609     10610
     10611     10612     10611     10613     10611     10623     10623     10624
     10623     10625     10623     10626     10626     10627     10626     10628
     10626     10629     10629     10630     10629     10631     10629     10632
     10632     10633     10632     10634     10632     10635     10635     10636
     10635     10637     10635     10638     10638     10639     10638     10640
     10638     10641     10641     10642     10641     10643     10643     10644
     10643     10645     10645     10646     10645     10647     10645     10648
     10648     10649     10648     10650     10648     10651     10651     10652
     10651     10653     10651     10654     10654     10655     10654     10656
     10654     10657     10657     10658     10657     10659     10657     10660
     10660     10661     10660     10662     10660     10663     10663     10664
     10663     10665     10663     10666     10666     10667     10666     10668
     10666     10669     10617     10618     10618     10620     10618     10619
     10620     10621     10620     10622     10620     10670     10670     10671
     10670     10672     10670     10673     10673     10674     10673     10675
     10673     10676     10676     10677     10676     10678     10676     10679
     10679     10680     10679     10681     10679     10682     10682     10683
     10682     10684     10682     10685     10685     10686     10685     10687
     10685     10688     10688     10689     10688     10690     10688     10691
     10691     10692     10691     10693     10691     10694     10694     10695
     10694     10696     10694     10697     10697     10698     10697     10699
     10697     10700     10700     10701     10700     10702     10700     10703
     10703     10704     10703     10705     10703     10706     10706     10707
     10706     10708     10706     10709     10709     10710     10709     10711
     10709     10712     10713     10717     10713     10721     10713     10725
     10717     10718     10717     10719     10717     10720     10721     10722
     10721     10723     10721     10724     10725     10726     10725     10727
     10725     10728     10713     10714     10714     10715     10714     10716
     10714     10729     10729     10730     10729     10731     10729     10735
     10736     10737     10735     10732     10732     10736     10732     10733
     10732     10734     10737     10738     10737     10739     10737     10740
     10740     10741     10740     10748     10740     10742     10748     10749
     10748     10750     10748     10751     10742     10743     10743     10745
     10743     10744     10745     10746     10745     10747     10745     10757
     10757     10758     10757     10759     10757     10760     10760     10761
     10760     10762     10760     10763     10763     10764     10763     10765
     10763     10766     10766     10767     10766     10768     10766     10769
     10769     10770     10769     10771     10769     10772     10772     10773
     10772     10774     10772     10775     10775     10776     10775     10777
     10777     10778     10777     10779     10779     10780     10779     10781
     10779     10782     10782     10783     10782     10784     10782     10785
     10785     10786     10785     10787     10785     10788     10788     10789
     10788     10790     10788     10791     10791     10792     10791     10793
     10791     10794     10794     10795     10794     10796     10794     10797
     10797     10798     10797     10799     10797     10800     10800     10801
     10800     10802     10800     10803     10751     10752     10752     10754
     10752     10753     10754     10755     10754     10756     10754     10804
     10804     10805     10804     10806     10804     10807     10807     10808
     10807     10809     10807     10810     10810     10811     10810     10812
     10810     10813     10813     10814     10813     10815     10813     10816
     10816     10817     10816     10818     10816     10819     10819     10820
     10819     10821     10819     10822     10822     10823     10822     10824
     10822     10825     10825     10826     10825     10827     10825     10828
     10828     10829     10828     10830     10828     10831     10831     10832
     10831     10833     10831     10834     10834     10835     10834     10836
     10834     10837     10837     10838     10837     10839     10837     10840
     10840     10841     10840     10842     10840     10843     10843     10844
     10843     10845     10843     10846     10847     10851     10847     10855
     10847     10859     10851     10852     10851     10853     10851     10854
     10855     10856     10855     10857     10855     10858     10859     10860
     10859     10861     10859     10862     10847     10848     10848     10849
     10848     10850     10848     10863     10863     10864     10863     10865
     10863     10869     10870     10871     10869     10866     10866     10870
     10866     10867     10866     10868     10871     10872     10871     10873
     10871     10874     10874     10875     10874     10882     10874     10876
     10882     10883     10882     10884     10882     10885     10876     10877
     10877     10879     10877     10878     10879     10880     10879     10881
     10879     10891     10891     10892     10891     10893     10891     10894
     10894     10895     10894     10896     10894     10897     10897     10898
     10897     10899     10897     10900     10900     10901     10900     10902
     10900     10903     10903     10904     10903     10905     10903     10906
     10906     10907     10906     10908     10906     10909     10909     10910
     10909     10911     10911     10912     10911     10913     10913     10914
     10913     10915     10913     10916     10916     10917     10916     10918
     10916     10919     10919     10920     10919     10921     10919     10922
     10922     10923     10922     10924     10922     10925     10925     10926
     10925     10927     10925     10928     10928     10929     10928     10930
     10928     10931     10931     10932     10931     10933     10931     10934
     10934     10935     10934     10936     10934     10937     10885     10886
     10886     10888     10886     10887     10888     10889     10888     10890
     10888     10938     10938     10939     10938     10940     10938     10941
     10941     10942     10941     10943     10941     10944     10944     10945
     10944     10946     10944     10947     10947     10948     10947     10949
     10947     10950     10950     10951     10950     10952     10950     10953
     10953     10954     10953     10955     10953     10956     10956     10957
     10956     10958     10956     10959     10959     10960     10959     10961
     10959     10962     10962     10963     10962     10964     10962     10965
     10965     10966     10965     10967     10965     10968     10968     10969
     10968     10970     10968     10971     10971     10972     10971     10973
     10971     10974     10974     10975     10974     10976     10974     10977
     10977     10978     10977     10979     10977     10980     10981     10985
     10981     10989     10981     10993     10985     10986     10985     10987
     10985     10988     10989     10990     10989     10991     10989     10992
     10993     10994     10993     10995     10993     10996     10981     10982
     10982     10983     10982     10984     10982     10997     10997     10998
     10997     10999     10997     11003     11004     11005     11003     11000
     11000     11004     11000     11001     11000     11002     11005     11006
     11005     11007     11005     11008     11008     11009     11008     11016
     11008     11010     11016     11017     11016     11018     11016     11019
     11010     11011     11011     11013     11011     11012     11013     11014
     11013     11015     11013     11025     11025     11026     11025     11027
     11025     11028     11028     11029     11028     11030     11028     11031
     11031     11032     11031     11033     11031     11034     11034     11035
     11034     11036     11034     11037     11037     11038     11037     11039
     11037     11040     11040     11041     11040     11042     11040     11043
     11043     11044     11043     11045     11045     11046     11045     11047
     11047     11048     11047     11049     11047     11050     11050     11051
     11050     11052     11050     11053     11053     11054     11053     11055
     11053     11056     11056     11057     11056     11058     11056     11059
     11059     11060     11059     11061     11059     11062     11062     11063
     11062     11064     11062     11065     11065     11066     11065     11067
     11065     11068     11068     11069     11068     11070     11068     11071
     11019     11020     11020     11022     11020     11021     11022     11023
     11022     11024     11022     11072     11072     11073     11072     11074
     11072     11075     11075     11076     11075     11077     11075     11078
     11078     11079     11078     11080     11078     11081     11081     11082
     11081     11083     11081     11084     11084     11085     11084     11086
     11084     11087     11087     11088     11087     11089     11087     11090
     11090     11091     11090     11092     11090     11093     11093     11094
     11093     11095     11093     11096     11096     11097     11096     11098
     11096     11099     11099     11100     11099     11101     11099     11102
     11102     11103     11102     11104     11102     11105     11105     11106
     11105     11107     11105     11108     11108     11109     11108     11110
     11108     11111     11111     11112     11111     11113     11111     11114
     11115     11119     11115     11123     11115     11127     11119     11120
     11119     11121     11119     11122     11123     11124     11123     11125
     11123     11126     11127     11128     11127     11129     11127     11130
     11115     11116     11116     11117     11116     11118     11116     11131
     11131     11132     11131     11133     11131     11137     11138     11139
     11137     11134     11134     11138     11134     11135     11134     11136
     11139     11140     11139     11141     11139     11142     11142     11143
     11142     11150     11142     11144     11150     11151     11150     11152
     11150     11153     11144     11145     11145     11147     11145     11146
     11147     11148     11147     11149     11147     11159     11159     11160
     11159     11161     11159     11162     11162     11163     11162     11164
     11162     11165     11165     11166     11165     11167     11165     11168
     11168     11169     11168     11170     11168     11171     11171     11172
     11171     11173     11171     11174     11174     11175     11174     11176
     11174     11177     11177     11178     11177     11179     11179     11180
     11179     11181     11181     11182     11181     11183     11181     11184
     11184     11185     11184     11186     11184     11187     11187     11188
     11187     11189     11187     11190     11190     11191     11190     11192
     11190     11193     11193     11194     11193     11195     11193     11196
     11196     11197     11196     11198     11196     11199     11199     11200
     11199     11201     11199     11202     11202     11203     11202     11204
     11202     11205     11153     11154     11154     11156     11154     11155
     11156     11157     11156     11158     11156     11206     11206     11207
     11206     11208     11206     11209     11209     11210     11209     11211
     11209     11212     11212     11213     11212     11214     11212     11215
     11215     11216     11215     11217     11215     11218     11218     11219
     11218     11220     11218     11221     11221     11222     11221     11223
     11221     11224     11224     11225     11224     11226     11224     11227
     11227     11228     11227     11229     11227     11230     11230     11231
     11230     11232     11230     11233     11233     11234     11233     11235
     11233     11236     11236     11237     11236     11238     11236     11239
     11239     11240     11239     11241     11239     11242     11242     11243
     11242     11244     11242     11245     11245     11246     11245     11247
     11245     11248     11249     11253     11249     11257     11249     11261
     11253     11254     11253     11255     11253     11256     11257     11258
     11257     11259     11257     11260     11261     11262     11261     11263
     11261     11264     11249     11250     11250     11251     11250     11252
     11250     11265     11265     11266     11265     11267     11265     11271
     11272     11273     11271     11268     11268     11272     11268     11269
     11268     11270     11273     11274     11273     11275     11273     11276
     11276     11277     11276     11284     11276     11278     11284     11285
     11284     11286     11284     11287     11278     11279     11279     11281
     11279     11280     11281     11282     11281     11283     11281     11293
     11293     11294     11293     11295     11293     11296     11296     11297
     11296     11298     11296     11299     11299     11300     11299     11301
     11299     11302     11302     11303     11302     11304     11302     11305
     11305     11306     11305     11307     11305     11308     11308     11309
     11308     11310     11308     11311     11311     11312     11311     11313
     11313     11314     11313     11315     11315     11316     11315     11317
     11315     11318     11318     11319     11318     11320     11318     11321
     11321     11322     11321     11323     11321     11324     11324     11325
     11324     11326     11324     11327     11327     11328     11327     11329
     11327     11330     11330     11331     11330     11332     11330     11333
     11333     11334     11333     11335     11333     11336     11336     11337
     11336     11338     11336     11339     11287     11288     11288     11290
     11288     11289     11290     11291     11290     11292     11290     11340
     11340     11341     11340     11342     11340     11343     11343     11344
     11343     11345     11343     11346     11346     11347     11346     11348
     11346     11349     11349     11350     11349     11351     11349     11352
     11352     11353     11352     11354     11352     11355     11355     11356
     11355     11357     11355     11358     11358     11359     11358     11360
     11358     11361     11361     11362     11361     11363     11361     11364
     11364     11365     11364     11366     11364     11367     11367     11368
     11367     11369     11367     11370     11370     11371     11370     11372
     11370     11373     11373     11374     11373     11375     11373     11376
     11376     11377     11376     11378     11376     11379     11379     11380
     11379     11381     11379     11382     11383     11387     11383     11391
     11383     11395     11387     11388     11387     11389     11387     11390
     11391     11392     11391     11393     11391     11394     11395     11396
     11395     11397     11395     11398     11383     11384     11384     11385
     11384     11386     11384     11399     11399     11400     11399     11401
     11399     11405     11406     11407     11405     11402     11402     11406
     11402     11403     11402     11404     11407     11408     11407     11409
     11407     11410     11410     11411     11410     11418     11410     11412
     11418     11419     11418     11420     11418     11421     11412     11413
     11413     11415     11413     11414     11415     11416     11415     11417
     11415     11427     11427     11428     11427     11429     11427     11430
     11430     11431     11430     11432     11430     11433     11433     11434
     11433     11435     11433     11436     11436     11437     11436     11438
     11436     11439     11439     11440     11439     11441     11439     11442
     11442     11443     11442     11444     11442     11445     11445     11446
     11445     11447     11447     11448     11447     11449     11449     11450
     11449     11451     11449     11452     11452     11453     11452     11454
     11452     11455     11455     11456     11455     11457     11455     11458
     11458     11459     11458     11460     11458     11461     11461     11462
     11461     11463     11461     11464     11464     11465     11464     11466
     11464     11467     11467     11468     11467     11469     11467     11470
     11470     11471     11470     11472     11470     11473     11421     11422
     11422     11424     11422     11423     11424     11425     11424     11426
     11424     11474     11474     11475     11474     11476     11474     11477
     11477     11478     11477     11479     11477     11480     11480     11481
     11480     11482     11480     11483     11483     11484     11483     11485
     11483     11486     11486     11487     11486     11488     11486     11489
     11489     11490     11489     11491     11489     11492     11492     11493
     11492     11494     11492     11495     11495     11496     11495     11497
     11495     11498     11498     11499     11498     11500     11498     11501
     11501     11502     11501     11503     11501     11504     11504     11505
     11504     11506     11504     11507     11507     11508     11507     11509
     11507     11510     11510     11511     11510     11512     11510     11513
     11513     11514     11513     11515     11513     11516     11517     11521
     11517     11525     11517     11529     11521     11522     11521     11523
     11521     11524     11525     11526     11525     11527     11525     11528
     11529     11530     11529     11531     11529     11532     11517     11518
     11518     11519     11518     11520     11518     11533     11533     11534
     11533     11535     11533     11539     11540     11541     11539     11536
     11536     11540     11536     11537     11536     11538     11541     11542
     11541     11543     11541     11544     11544     11545     11544     11552
     11544     11546     11552     11553     11552     11554     11552     11555
     11546     11547     11547     11549     11547     11548     11549     11550
     11549     11551     11549     11561     11561     11562     11561     11563
     11561     11564     11564     11565     11564     11566     11564     11567
     11567     11568     11567     11569     11567     11570     11570     11571
     11570     11572     11570     11573     11573     11574     11573     11575
     11573     11576     11576     11577     11576     11578     11576     11579
     11579     11580     11579     11581     11581     11582     11581     11583
     11583     11584     11583     11585     11583     11586     11586     11587
     11586     11588     11586     11589     11589     11590     11589     11591
     11589     11592     11592     11593     11592     11594     11592     11595
     11595     11596     11595     11597     11595     11598     11598     11599
     11598     11600     11598     11601     11601     11602     11601     11603
     11601     11604     11604     11605     11604     11606     11604     11607
     11555     11556     11556     11558     11556     11557     11558     11559
     11558     11560     11558     11608     11608     11609     11608     11610
     11608     11611     11611     11612     11611     11613     11611     11614
     11614     11615     11614     11616     11614     11617     11617     11618
     11617     11619     11617     11620     11620     11621     11620     11622
     11620     11623     11623     11624     11623     11625     11623     11626
     11626     11627     11626     11628     11626     11629     11629     11630
     11629     11631     11629     11632     11632     11633     11632     11634
     11632     11635     11635     11636     11635     11637     11635     11638
     11638     11639     11638     11640     11638     11641     11641     11642
     11641     11643     11641     11644     11644     11645     11644     11646
     11644     11647     11647     11648     11647     11649     11647     11650
     11651     11655     11651     11659     11651     11663     11655     11656
     11655     11657     11655     11658     11659     11660     11659     11661
     11659     11662     11663     11664     11663     11665     11663     11666
     11651     11652     11652     11653     11652     11654     11652     11667
     11667     11668     11667     11669     11667     11673     11674     11675
     11673     11670     11670     11674     11670     11671     11670     11672
     11675     11676     11675     11677     11675     11678     11678     11679
     11678     11686     11678     11680     11686     11687     11686     11688
     11686     11689     11680     11681     11681     11683     11681     11682
     11683     11684     11683     11685     11683     11695     11695     11696
     11695     11697     11695     11698     11698     11699     11698     11700
     11698     11701     11701     11702     11701     11703     11701     11704
     11704     11705     11704     11706     11704     11707     11707     11708
     11707     11709     11707     11710     11710     11711     11710     11712
     11710     11713     11713     11714     11713     11715     11715     11716
     11715     11717     11717     11718     11717     11719     11717     11720
     11720     11721     11720     11722     11720     11723     11723     11724
     11723     11725     11723     11726     11726     11727     11726     11728
     11726     11729     11729     11730     11729     11731     11729     11732
     11732     11733     11732     11734     11732     11735     11735     11736
     11735     11737     11735     11738     11738     11739     11738     11740
     11738     11741     11689     11690     11690     11692     11690     11691
     11692     11693     11692     11694     11692     11742     11742     11743
     11742     11744     11742     11745     11745     11746     11745     11747
     11745     11748     11748     11749     11748     11750     11748     11751
     11751     11752     11751     11753     11751     11754     11754     11755
     11754     11756     11754     11757     11757     11758     11757     11759
     11757     11760     11760     11761     11760     11762     11760     11763
     11763     11764     11763     11765     11763     11766     11766     11767
     11766     11768     11766     11769     11769     11770     11769     11771
     11769     11772     11772     11773     11772     11774     11772     11775
     11775     11776     11775     11777     11775     11778     11778     11779
     11778     11780     11778     11781     11781     11782     11781     11783
     11781     11784     11785     11789     11785     11793     11785     11797
     11789     11790     11789     11791     11789     11792     11793     11794
     11793     11795     11793     11796     11797     11798     11797     11799
     11797     11800     11785     11786     11786     11787     11786     11788
     11786     11801     11801     11802     11801     11803     11801     11807
     11808     11809     11807     11804     11804     11808     11804     11805
     11804     11806     11809     11810     11809     11811     11809     11812
     11812     11813     11812     11820     11812     11814     11820     11821
     11820     11822     11820     11823     11814     11815     11815     11817
     11815     11816     11817     11818     11817     11819     11817     11829
     11829     11830     11829     11831     11829     11832     11832     11833
     11832     11834     11832     11835     11835     11836     11835     11837
     11835     11838     11838     11839     11838     11840     11838     11841
     11841     11842     11841     11843     11841     11844     11844     11845
     11844     11846     11844     11847     11847     11848     11847     11849
     11849     11850     11849     11851     11851     11852     11851     11853
     11851     11854     11854     11855     11854     11856     11854     11857
     11857     11858     11857     11859     11857     11860     11860     11861
     11860     11862     11860     11863     11863     11864     11863     11865
     11863     11866     11866     11867     11866     11868     11866     11869
     11869     11870     11869     11871     11869     11872     11872     11873
     11872     11874     11872     11875     11823     11824     11824     11826
     11824     11825     11826     11827     11826     11828     11826     11876
     11876     11877     11876     11878     11876     11879     11879     11880
     11879     11881     11879     11882     11882     11883     11882     11884
     11882     11885     11885     11886     11885     11887     11885     11888
     11888     11889     11888     11890     11888     11891     11891     11892
     11891     11893     11891     11894     11894     11895     11894     11896
     11894     11897     11897     11898     11897     11899     11897     11900
     11900     11901     11900     11902     11900     11903     11903     11904
     11903     11905     11903     11906     11906     11907     11906     11908
     11906     11909     11909     11910     11909     11911     11909     11912
     11912     11913     11912     11914     11912     11915     11915     11916
     11915     11917     11915     11918     11919     11923     11919     11927
     11919     11931     11923     11924     11923     11925     11923     11926
     11927     11928     11927     11929     11927     11930     11931     11932
     11931     11933     11931     11934     11919     11920     11920     11921
     11920     11922     11920     11935     11935     11936     11935     11937
     11935     11941     11942     11943     11941     11938     11938     11942
     11938     11939     11938     11940     11943     11944     11943     11945
     11943     11946     11946     11947     11946     11954     11946     11948
     11954     11955     11954     11956     11954     11957     11948     11949
     11949     11951     11949     11950     11951     11952     11951     11953
     11951     11963     11963     11964     11963     11965     11963     11966
     11966     11967     11966     11968     11966     11969     11969     11970
     11969     11971     11969     11972     11972     11973     11972     11974
     11972     11975     11975     11976     11975     11977     11975     11978
     11978     11979     11978     11980     11978     11981     11981     11982
     11981     11983     11983     11984     11983     11985     11985     11986
     11985     11987     11985     11988     11988     11989     11988     11990
     11988     11991     11991     11992     11991     11993     11991     11994
     11994     11995     11994     11996     11994     11997     11997     11998
     11997     11999     11997     12000     12000     12001     12000     12002
     12000     12003     12003     12004     12003     12005     12003     12006
     12006     12007     12006     12008     12006     12009     11957     11958
     11958     11960     11958     11959     11960     11961     11960     11962
     11960     12010     12010     12011     12010     12012     12010     12013
     12013     12014     12013     12015     12013     12016     12016     12017
     12016     12018     12016     12019     12019     12020     12019     12021
     12019     12022     12022     12023     12022     12024     12022     12025
     12025     12026     12025     12027     12025     12028     12028     12029
     12028     12030     12028     12031     12031     12032     12031     12033
     12031     12034     12034     12035     12034     12036     12034     12037
     12037     12038     12037     12039     12037     12040     12040     12041
     12040     12042     12040     12043     12043     12044     12043     12045
     12043     12046     12046     12047     12046     12048     12046     12049
     12049     12050     12049     12051     12049     12052     12053     12054
     12053     12055     12053     12056     12053     12057     12061     12059
     12059     12057     12059     12060     12057     12058     12057     12062
     12070     12069     12062     12063     12062     12064     12062     12068
     12068     12065     12065     12069     12065     12066     12065     12067
     12070     12071     12070     12072     12070     12073     12073     12074
     12073     12081     12073     12075     12081     12082     12081     12083
     12081     12084     12075     12076     12076     12078     12076     12077
     12078     12079     12078     12080     12078     12090     12090     12091
     12090     12092     12090     12093     12093     12094     12093     12095
     12093     12096     12096     12097     12096     12098     12096     12099
     12099     12100     12099     12101     12099     12102     12102     12103
     12102     12104     12102     12105     12105     12106     12105     12107
     12105     12108     12108     12109     12108     12110     12110     12111
     12110     12112     12112     12113     12112     12114     12112     12115
     12115     12116     12115     12117     12115     12118     12118     12119
     12118     12120     12118     12121     12121     12122     12121     12123
     12121     12124     12124     12125     12124     12126     12124     12127
     12127     12128     12127     12129     12127     12130     12130     12131
     12130     12132     12130     12133     12133     12134     12133     12135
     12133     12136     12084     12085     12085     12087     12085     12086
     12087     12088     12087     12089     12087     12137     12137     12138
     12137     12139     12137     12140     12140     12141     12140     12142
     12140     12143     12143     12144     12143     12145     12143     12146
     12146     12147     12146     12148     12146     12149     12149     12150
     12149     12151     12149     12152     12152     12153     12152     12154
     12152     12155     12155     12156     12155     12157     12155     12158
     12158     12159     12158     12160     12158     12161     12161     12162
     12161     12163     12161     12164     12164     12165     12164     12166
     12164     12167     12167     12168     12167     12169     12167     12170
     12170     12171     12170     12172     12170     12173     12173     12174
     12173     12175     12173     12176     12176     12177     12176     12178
     12176     12179     12180     12184     12180     12188     12180     12192
     12184     12185     12184     12186     12184     12187     12188     12189
     12188     12190     12188     12191     12192     12193     12192     12194
     12192     12195     12180     12181     12181     12182     12181     12183
     12181     12196     12196     12197     12196     12198     12196     12202
     12203     12204     12202     12199     12199     12203     12199     12200
     12199     12201     12204     12205     12204     12206     12204     12207
     12207     12208     12207     12215     12207     12209     12215     12216
     12215     12217     12215     12218     12209     12210     12210     12212
     12210     12211     12212     12213     12212     12214     12212     12224
     12224     12225     12224     12226     12224     12227     12227     12228
     12227     12229     12227     12230     12230     12231     12230     12232
     12230     12233     12233     12234     12233     12235     12233     12236
     12236     12237     12236     12238     12236     12239     12239     12240
     12239     12241     12239     12242     12242     12243     12242     12244
     12244     12245     12244     12246     12246     12247     12246     12248
     12246     12249     12249     12250     12249     12251     12249     12252
     12252     12253     12252     12254     12252     12255     12255     12256
     12255     12257     12255     12258     12258     12259     12258     12260
     12258     12261     12261     12262     12261     12263     12261     12264
     12264     12265     12264     12266     12264     12267     12267     12268
     12267     12269     12267     12270     12218     12219     12219     12221
     12219     12220     12221     12222     12221     12223     12221     12271
     12271     12272     12271     12273     12271     12274     12274     12275
     12274     12276     12274     12277     12277     12278     12277     12279
     12277     12280     12280     12281     12280     12282     12280     12283
     12283     12284     12283     12285     12283     12286     12286     12287
     12286     12288     12286     12289     12289     12290     12289     12291
     12289     12292     12292     12293     12292     12294     12292     12295
     12295     12296     12295     12297     12295     12298     12298     12299
     12298     12300     12298     12301     12301     12302     12301     12303
     12301     12304     12304     12305     12304     12306     12304     12307
     12307     12308     12307     12309     12307     12310     12310     12311
     12310     12312     12310     12313     12314     12315     12314     12316
     12314     12317     12314     12318     12322     12320     12320     12318
     12320     12321     12318     12319     12318     12323     12331     12330
     12323     12324     12323     12325     12323     12329     12329     12326
     12326     12330     12326     12327     12326     12328     12331     12332
     12331     12333     12331     12334     12334     12335     12334     12342
     12334     12336     12342     12343     12342     12344     12342     12345
     12336     12337     12337     12339     12337     12338     12339     12340
     12339     12341     12339     12351     12351     12352     12351     12353
     12351     12354     12354     12355     12354     12356     12354     12357
     12357     12358     12357     12359     12357     12360     12360     12361
     12360     12362     12360     12363     12363     12364     12363     12365
     12363     12366     12366     12367     12366     12368     12366     12369
     12369     12370     12369     12371     12371     12372     12371     12373
     12373     12374     12373     12375     12373     12376     12376     12377
     12376     12378     12376     12379     12379     12380     12379     12381
     12379     12382     12382     12383     12382     12384     12382     12385
     12385     12386     12385     12387     12385     12388     12388     12389
     12388     12390     12388     12391     12391     12392     12391     12393
     12391     12394     12394     12395     12394     12396     12394     12397
     12345     12346     12346     12348     12346     12347     12348     12349
     12348     12350     12348     12398     12398     12399     12398     12400
     12398     12401     12401     12402     12401     12403     12401     12404
     12404     12405     12404     12406     12404     12407     12407     12408
     12407     12409     12407     12410     12410     12411     12410     12412
     12410     12413     12413     12414     12413     12415     12413     12416
     12416     12417     12416     12418     12416     12419     12419     12420
     12419     12421     12419     12422     12422     12423     12422     12424
     12422     12425     12425     12426     12425     12427     12425     12428
     12428     12429     12428     12430     12428     12431     12431     12432
     12431     12433     12431     12434     12434     12435     12434     12436
     12434     12437     12437     12438     12437     12439     12437     12440
     12441     12445     12441     12449     12441     12453     12445     12446
     12445     12447     12445     12448     12449     12450     12449     12451
     12449     12452     12453     12454     12453     12455     12453     12456
     12441     12442     12442     12443     12442     12444     12442     12457
     12457     12458     12457     12459     12457     12463     12464     12465
     12463     12460     12460     12464     12460     12461     12460     12462
     12465     12466     12465     12467     12465     12468     12468     12469
     12468     12476     12468     12470     12476     12477     12476     12478
     12476     12479     12470     12471     12471     12473     12471     12472
     12473     12474     12473     12475     12473     12485     12485     12486
     12485     12487     12485     12488     12488     12489     12488     12490
     12488     12491     12491     12492     12491     12493     12491     12494
     12494     12495     12494     12496     12494     12497     12497     12498
     12497     12499     12497     12500     12500     12501     12500     12502
     12500     12503     12503     12504     12503     12505     12505     12506
     12505     12507     12507     12508     12507     12509     12507     12510
     12510     12511     12510     12512     12510     12513     12513     12514
     12513     12515     12513     12516     12516     12517     12516     12518
     12516     12519     12519     12520     12519     12521     12519     12522
     12522     12523     12522     12524     12522     12525     12525     12526
     12525     12527     12525     12528     12528     12529     12528     12530
     12528     12531     12479     12480     12480     12482     12480     12481
     12482     12483     12482     12484     12482     12532     12532     12533
     12532     12534     12532     12535     12535     12536     12535     12537
     12535     12538     12538     12539     12538     12540     12538     12541
     12541     12542     12541     12543     12541     12544     12544     12545
     12544     12546     12544     12547     12547     12548     12547     12549
     12547     12550     12550     12551     12550     12552     12550     12553
     12553     12554     12553     12555     12553     12556     12556     12557
     12556     12558     12556     12559     12559     12560     12559     12561
     12559     12562     12562     12563     12562     12564     12562     12565
     12565     12566     12565     12567     12565     12568     12568     12569
     12568     12570     12568     12571     12571     12572     12571     12573
     12571     12574     12575     12579     12575     12583     12575     12587
     12579     12580     12579     12581     12579     12582     12583     12584
     12583     12585     12583     12586     12587     12588     12587     12589
     12587     12590     12575     12576     12576     12577     12576     12578
     12576     12591     12591     12592     12591     12593     12591     12597
     12598     12599     12597     12594     12594     12598     12594     12595
     12594     12596     12599     12600     12599     12601     12599     12602
     12602     12603     12602     12610     12602     12604     12610     12611
     12610     12612     12610     12613     12604     12605     12605     12607
     12605     12606     12607     12608     12607     12609     12607     12619
     12619     12620     12619     12621     12619     12622     12622     12623
     12622     12624     12622     12625     12625     12626     12625     12627
     12625     12628     12628     12629     12628     12630     12628     12631
     12631     12632     12631     12633     12631     12634     12634     12635
     12634     12636     12634     12637     12637     12638     12637     12639
     12639     12640     12639     12641     12641     12642     12641     12643
     12641     12644     12644     12645     12644     12646     12644     12647
     12647     12648     12647     12649     12647     12650     12650     12651
     12650     12652     12650     12653     12653     12654     12653     12655
     12653     12656     12656     12657     12656     12658     12656     12659
     12659     12660     12659     12661     12659     12662     12662     12663
     12662     12664     12662     12665     12613     12614     12614     12616
     12614     12615     12616     12617     12616     12618     12616     12666
     12666     12667     12666     12668     12666     12669     12669     12670
     12669     12671     12669     12672     12672     12673     12672     12674
     12672     12675     12675     12676     12675     12677     12675     12678
     12678     12679     12678     12680     12678     12681     12681     12682
     12681     12683     12681     12684     12684     12685     12684     12686
     12684     12687     12687     12688     12687     12689     12687     12690
     12690     12691     12690     12692     12690     12693     12693     12694
     12693     12695     12693     12696     12696     12697     12696     12698
     12696     12699     12699     12700     12699     12701     12699     12702
     12702     12703     12702     12704     12702     12705     12705     12706
     12705     12707     12705     12708     12709     12713     12709     12717
     12709     12721     12713     12714     12713     12715     12713     12716
     12717     12718     12717     12719     12717     12720     12721     12722
     12721     12723     12721     12724     12709     12710     12710     12711
     12710     12712     12710     12725     12725     12726     12725     12727
     12725     12731     12732     12733     12731     12728     12728     12732
     12728     12729     12728     12730     12733     12734     12733     12735
     12733     12736     12736     12737     12736     12744     12736     12738
     12744     12745     12744     12746     12744     12747     12738     12739
     12739     12741     12739     12740     12741     12742     12741     12743
     12741     12753     12753     12754     12753     12755     12753     12756
     12756     12757     12756     12758     12756     12759     12759     12760
     12759     12761     12759     12762     12762     12763     12762     12764
     12762     12765     12765     12766     12765     12767     12765     12768
     12768     12769     12768     12770     12768     12771     12771     12772
     12771     12773     12773     12774     12773     12775     12775     12776
     12775     12777     12775     12778     12778     12779     12778     12780
     12778     12781     12781     12782     12781     12783     12781     12784
     12784     12785     12784     12786     12784     12787     12787     12788
     12787     12789     12787     12790     12790     12791     12790     12792
     12790     12793     12793     12794     12793     12795     12793     12796
     12796     12797     12796     12798     12796     12799     12747     12748
     12748     12750     12748     12749     12750     12751     12750     12752
     12750     12800     12800     12801     12800     12802     12800     12803
     12803     12804     12803     12805     12803     12806     12806     12807
     12806     12808     12806     12809     12809     12810     12809     12811
     12809     12812     12812     12813     12812     12814     12812     12815
     12815     12816     12815     12817     12815     12818     12818     12819
     12818     12820     12818     12821     12821     12822     12821     12823
     12821     12824     12824     12825     12824     12826     12824     12827
     12827     12828     12827     12829     12827     12830     12830     12831
     12830     12832     12830     12833     12833     12834     12833     12835
     12833     12836     12836     12837     12836     12838     12836     12839
     12839     12840     12839     12841     12839     12842     12843     12847
     12843     12851     12843     12855     12847     12848     12847     12849
     12847     12850     12851     12852     12851     12853     12851     12854
     12855     12856     12855     12857     12855     12858     12843     12844
     12844     12845     12844     12846     12844     12859     12859     12860
     12859     12861     12859     12865     12866     12867     12865     12862
     12862     12866     12862     12863     12862     12864     12867     12868
     12867     12869     12867     12870     12870     12871     12870     12878
     12870     12872     12878     12879     12878     12880     12878     12881
     12872     12873     12873     12875     12873     12874     12875     12876
     12875     12877     12875     12887     12887     12888     12887     12889
     12887     12890     12890     12891     12890     12892     12890     12893
     12893     12894     12893     12895     12893     12896     12896     12897
     12896     12898     12896     12899     12899     12900     12899     12901
     12899     12902     12902     12903     12902     12904     12902     12905
     12905     12906     12905     12907     12907     12908     12907     12909
     12909     12910     12909     12911     12909     12912     12912     12913
     12912     12914     12912     12915     12915     12916     12915     12917
     12915     12918     12918     12919     12918     12920     12918     12921
     12921     12922     12921     12923     12921     12924     12924     12925
     12924     12926     12924     12927     12927     12928     12927     12929
     12927     12930     12930     12931     12930     12932     12930     12933
     12881     12882     12882     12884     12882     12883     12884     12885
     12884     12886     12884     12934     12934     12935     12934     12936
     12934     12937     12937     12938     12937     12939     12937     12940
     12940     12941     12940     12942     12940     12943     12943     12944
     12943     12945     12943     12946     12946     12947     12946     12948
     12946     12949     12949     12950     12949     12951     12949     12952
     12952     12953     12952     12954     12952     12955     12955     12956
     12955     12957     12955     12958     12958     12959     12958     12960
     12958     12961     12961     12962     12961     12963     12961     12964
     12964     12965     12964     12966     12964     12967     12967     12968
     12967     12969     12967     12970     12970     12971     12970     12972
     12970     12973     12973     12974     12973     12975     12973     12976
     12977     12981     12977     12985     12977     12989     12981     12982
     12981     12983     12981     12984     12985     12986     12985     12987
     12985     12988     12989     12990     12989     12991     12989     12992
     12977     12978     12978     12979     12978     12980     12978     12993
     12993     12994     12993     12995     12993     12999     13000     13001
     12999     12996     12996     13000     12996     12997     12996     12998
     13001     13002     13001     13003     13001     13004     13004     13005
     13004     13012     13004     13006     13012     13013     13012     13014
     13012     13015     13006     13007     13007     13009     13007     13008
     13009     13010     13009     13011     13009     13021     13021     13022
     13021     13023     13021     13024     13024     13025     13024     13026
     13024     13027     13027     13028     13027     13029     13027     13030
     13030     13031     13030     13032     13030     13033     13033     13034
     13033     13035     13033     13036     13036     13037     13036     13038
     13036     13039     13039     13040     13039     13041     13041     13042
     13041     13043     13043     13044     13043     13045     13043     13046
     13046     13047     13046     13048     13046     13049     13049     13050
     13049     13051     13049     13052     13052     13053     13052     13054
     13052     13055     13055     13056     13055     13057     13055     13058
     13058     13059     13058     13060     13058     13061     13061     13062
     13061     13063     13061     13064     13064     13065     13064     13066
     13064     13067     13015     13016     13016     13018     13016     13017
     13018     13019     13018     13020     13018     13068     13068     13069
     13068     13070     13068     13071     13071     13072     13071     13073
     13071     13074     13074     13075     13074     13076     13074     13077
     13077     13078     13077     13079     13077     13080     13080     13081
     13080     13082     13080     13083     13083     13084     13083     13085
     13083     13086     13086     13087     13086     13088     13086     13089
     13089     13090     13089     13091     13089     13092     13092     13093
     13092     13094     13092     13095     13095     13096     13095     13097
     13095     13098     13098     13099     13098     13100     13098     13101
     13101     13102     13101     13103     13101     13104     13104     13105
     13104     13106     13104     13107     13107     13108     13107     13109
     13107     13110     13111     13115     13111     13119     13111     13123
     13115     13116     13115     13117     13115     13118     13119     13120
     13119     13121     13119     13122     13123     13124     13123     13125
     13123     13126     13111     13112     13112     13113     13112     13114
     13112     13127     13127     13128     13127     13129     13127     13133
     13134     13135     13133     13130     13130     13134     13130     13131
     13130     13132     13135     13136     13135     13137     13135     13138
     13138     13139     13138     13146     13138     13140     13146     13147
     13146     13148     13146     13149     13140     13141     13141     13143
     13141     13142     13143     13144     13143     13145     13143     13155
     13155     13156     13155     13157     13155     13158     13158     13159
     13158     13160     13158     13161     13161     13162     13161     13163
     13161     13164     13164     13165     13164     13166     13164     13167
     13167     13168     13167     13169     13167     13170     13170     13171
     13170     13172     13170     13173     13173     13174     13173     13175
     13175     13176     13175     13177     13177     13178     13177     13179
     13177     13180     13180     13181     13180     13182     13180     13183
     13183     13184     13183     13185     13183     13186     13186     13187
     13186     13188     13186     13189     13189     13190     13189     13191
     13189     13192     13192     13193     13192     13194     13192     13195
     13195     13196     13195     13197     13195     13198     13198     13199
     13198     13200     13198     13201     13149     13150     13150     13152
     13150     13151     13152     13153     13152     13154     13152     13202
     13202     13203     13202     13204     13202     13205     13205     13206
     13205     13207     13205     13208     13208     13209     13208     13210
     13208     13211     13211     13212     13211     13213     13211     13214
     13214     13215     13214     13216     13214     13217     13217     13218
     13217     13219     13217     13220     13220     13221     13220     13222
     13220     13223     13223     13224     13223     13225     13223     13226
     13226     13227     13226     13228     13226     13229     13229     13230
     13229     13231     13229     13232     13232     13233     13232     13234
     13232     13235     13235     13236     13235     13237     13235     13238
     13238     13239     13238     13240     13238     13241     13241     13242
     13241     13243     13241     13244     13245     13249     13245     13253
     13245     13257     13249     13250     13249     13251     13249     13252
     13253     13254     13253     13255     13253     13256     13257     13258
     13257     13259     13257     13260     13245     13246     13246     13247
     13246     13248     13246     13261     13261     13262     13261     13263
     13261     13267     13268     13269     13267     13264     13264     13268
     13264     13265     13264     13266     13269     13270     13269     13271
     13269     13272     13272     13273     13272     13280     13272     13274
     13280     13281     13280     13282     13280     13283     13274     13275
     13275     13277     13275     13276     13277     13278     13277     13279
     13277     13289     13289     13290     13289     13291     13289     13292
     13292     13293     13292     13294     13292     13295     13295     13296
     13295     13297     13295     13298     13298     13299     13298     13300
     13298     13301     13301     13302     13301     13303     13301     13304
     13304     13305     13304     13306     13304     13307     13307     13308
     13307     13309     13309     13310     13309     13311     13311     13312
     13311     13313     13311     13314     13314     13315     13314     13316
     13314     13317     13317     13318     13317     13319     13317     13320
     13320     13321     13320     13322     13320     13323     13323     13324
     13323     13325     13323     13326     13326     13327     13326     13328
     13326     13329     13329     13330     13329     13331     13329     13332
     13332     13333     13332     13334     13332     13335     13283     13284
     13284     13286     13284     13285     13286     13287     13286     13288
     13286     13336     13336     13337     13336     13338     13336     13339
     13339     13340     13339     13341     13339     13342     13342     13343
     13342     13344     13342     13345     13345     13346     13345     13347
     13345     13348     13348     13349     13348     13350     13348     13351
     13351     13352     13351     13353     13351     13354     13354     13355
     13354     13356     13354     13357     13357     13358     13357     13359
     13357     13360     13360     13361     13360     13362     13360     13363
     13363     13364     13363     13365     13363     13366     13366     13367
     13366     13368     13366     13369     13369     13370     13369     13371
     13369     13372     13372     13373     13372     13374     13372     13375
     13375     13376     13375     13377     13375     13378     13379     13383
     13379     13387     13379     13391     13383     13384     13383     13385
     13383     13386     13387     13388     13387     13389     13387     13390
     13391     13392     13391     13393     13391     13394     13379     13380
     13380     13381     13380     13382     13380     13395     13395     13396
     13395     13397     13395     13401     13402     13403     13401     13398
     13398     13402     13398     13399     13398     13400     13403     13404
     13403     13405     13403     13406     13406     13407     13406     13414
     13406     13408     13414     13415     13414     13416     13414     13417
     13408     13409     13409     13411     13409     13410     13411     13412
     13411     13413     13411     13423     13423     13424     13423     13425
     13423     13426     13426     13427     13426     13428     13426     13429
     13429     13430     13429     13431     13429     13432     13432     13433
     13432     13434     13432     13435     13435     13436     13435     13437
     13435     13438     13438     13439     13438     13440     13438     13441
     13441     13442     13441     13443     13443     13444     13443     13445
     13445     13446     13445     13447     13445     13448     13448     13449
     13448     13450     13448     13451     13451     13452     13451     13453
     13451     13454     13454     13455     13454     13456     13454     13457
     13457     13458     13457     13459     13457     13460     13460     13461
     13460     13462     13460     13463     13463     13464     13463     13465
     13463     13466     13466     13467     13466     13468     13466     13469
     13417     13418     13418     13420     13418     13419     13420     13421
     13420     13422     13420     13470     13470     13471     13470     13472
     13470     13473     13473     13474     13473     13475     13473     13476
     13476     13477     13476     13478     13476     13479     13479     13480
     13479     13481     13479     13482     13482     13483     13482     13484
     13482     13485     13485     13486     13485     13487     13485     13488
     13488     13489     13488     13490     13488     13491     13491     13492
     13491     13493     13491     13494     13494     13495     13494     13496
     13494     13497     13497     13498     13497     13499     13497     13500
     13500     13501     13500     13502     13500     13503     13503     13504
     13503     13505     13503     13506     13506     13507     13506     13508
     13506     13509     13509     13510     13509     13511     13509     13512
     13513     13517     13513     13521     13513     13525     13517     13518
     13517     13519     13517     13520     13521     13522     13521     13523
     13521     13524     13525     13526     13525     13527     13525     13528
     13513     13514     13514     13515     13514     13516     13514     13529
     13529     13530     13529     13531     13529     13535     13536     13537
     13535     13532     13532     13536     13532     13533     13532     13534
     13537     13538     13537     13539     13537     13540     13540     13541
     13540     13548     13540     13542     13548     13549     13548     13550
     13548     13551     13542     13543     13543     13545     13543     13544
     13545     13546     13545     13547     13545     13557     13557     13558
     13557     13559     13557     13560     13560     13561     13560     13562
     13560     13563     13563     13564     13563     13565     13563     13566
     13566     13567     13566     13568     13566     13569     13569     13570
     13569     13571     13569     13572     13572     13573     13572     13574
     13572     13575     13575     13576     13575     13577     13577     13578
     13577     13579     13579     13580     13579     13581     13579     13582
     13582     13583     13582     13584     13582     13585     13585     13586
     13585     13587     13585     13588     13588     13589     13588     13590
     13588     13591     13591     13592     13591     13593     13591     13594
     13594     13595     13594     13596     13594     13597     13597     13598
     13597     13599     13597     13600     13600     13601     13600     13602
     13600     13603     13551     13552     13552     13554     13552     13553
     13554     13555     13554     13556     13554     13604     13604     13605
     13604     13606     13604     13607     13607     13608     13607     13609
     13607     13610     13610     13611     13610     13612     13610     13613
     13613     13614     13613     13615     13613     13616     13616     13617
     13616     13618     13616     13619     13619     13620     13619     13621
     13619     13622     13622     13623     13622     13624     13622     13625
     13625     13626     13625     13627     13625     13628     13628     13629
     13628     13630     13628     13631     13631     13632     13631     13633
     13631     13634     13634     13635     13634     13636     13634     13637
     13637     13638     13637     13639     13637     13640     13640     13641
     13640     13642     13640     13643     13643     13644     13643     13645
     13643     13646     13647     13648     13647     13649     13647     13650
     13647     13651     13655     13653     13653     13651     13653     13654
     13651     13652     13651     13656     13664     13663     13656     13657
     13656     13658     13656     13662     13662     13659     13659     13663
     13659     13660     13659     13661     13664     13665     13664     13666
     13664     13667     13667     13668     13667     13675     13667     13669
     13675     13676     13675     13677     13675     13678     13669     13670
     13670     13672     13670     13671     13672     13673     13672     13674
     13672     13684     13684     13685     13684     13686     13684     13687
     13687     13688     13687     13689     13687     13690     13690     13691
     13690     13692     13690     13693     13693     13694     13693     13695
     13693     13696     13696     13697     13696     13698     13696     13699
     13699     13700     13699     13701     13699     13702     13702     13703
     13702     13704     13704     13705     13704     13706     13706     13707
     13706     13708     13706     13709     13709     13710     13709     13711
     13709     13712     13712     13713     13712     13714     13712     13715
     13715     13716     13715     13717     13715     13718     13718     13719
     13718     13720     13718     13721     13721     13722     13721     13723
     13721     13724     13724     13725     13724     13726     13724     13727
     13727     13728     13727     13729     13727     13730     13678     13679
     13679     13681     13679     13680     13681     13682     13681     13683
     13681     13731     13731     13732     13731     13733     13731     13734
     13734     13735     13734     13736     13734     13737     13737     13738
     13737     13739     13737     13740     13740     13741     13740     13742
     13740     13743     13743     13744     13743     13745     13743     13746
     13746     13747     13746     13748     13746     13749     13749     13750
     13749     13751     13749     13752     13752     13753     13752     13754
     13752     13755     13755     13756     13755     13757     13755     13758
     13758     13759     13758     13760     13758     13761     13761     13762
     13761     13763     13761     13764     13764     13765     13764     13766
     13764     13767     13767     13768     13767     13769     13767     13770
     13770     13771     13770     13772     13770     13773     13774     13778
     13774     13782     13774     13786     13778     13779     13778     13780
     13778     13781     13782     13783     13782     13784     13782     13785
     13786     13787     13786     13788     13786     13789     13774     13775
     13775     13776     13775     13777     13775     13790     13790     13791
     13790     13792     13790     13796     13797     13798     13796     13793
     13793     13797     13793     13794     13793     13795     13798     13799
     13798     13800     13798     13801     13801     13802     13801     13809
     13801     13803     13809     13810     13809     13811     13809     13812
     13803     13804     13804     13806     13804     13805     13806     13807
     13806     13808     13806     13818     13818     13819     13818     13820
     13818     13821     13821     13822     13821     13823     13821     13824
     13824     13825     13824     13826     13824     13827     13827     13828
     13827     13829     13827     13830     13830     13831     13830     13832
     13830     13833     13833     13834     13833     13835     13833     13836
     13836     13837     13836     13838     13838     13839     13838     13840
     13840     13841     13840     13842     13840     13843     13843     13844
     13843     13845     13843     13846     13846     13847     13846     13848
     13846     13849     13849     13850     13849     13851     13849     13852
     13852     13853     13852     13854     13852     13855     13855     13856
     13855     13857     13855     13858     13858     13859     13858     13860
     13858     13861     13861     13862     13861     13863     13861     13864
     13812     13813     13813     13815     13813     13814     13815     13816
     13815     13817     13815     13865     13865     13866     13865     13867
     13865     13868     13868     13869     13868     13870     13868     13871
     13871     13872     13871     13873     13871     13874     13874     13875
     13874     13876     13874     13877     13877     13878     13877     13879
     13877     13880     13880     13881     13880     13882     13880     13883
     13883     13884     13883     13885     13883     13886     13886     13887
     13886     13888     13886     13889     13889     13890     13889     13891
     13889     13892     13892     13893     13892     13894     13892     13895
     13895     13896     13895     13897     13895     13898     13898     13899
     13898     13900     13898     13901     13901     13902     13901     13903
     13901     13904     13904     13905     13904     13906     13904     13907
     13908     13912     13908     13916     13908     13920     13912     13913
     13912     13914     13912     13915     13916     13917     13916     13918
     13916     13919     13920     13921     13920     13922     13920     13923
     13908     13909     13909     13910     13909     13911     13909     13924
     13924     13925     13924     13926     13924     13930     13931     13932
     13930     13927     13927     13931     13927     13928     13927     13929
     13932     13933     13932     13934     13932     13935     13935     13936
     13935     13943     13935     13937     13943     13944     13943     13945
     13943     13946     13937     13938     13938     13940     13938     13939
     13940     13941     13940     13942     13940     13952     13952     13953
     13952     13954     13952     13955     13955     13956     13955     13957
     13955     13958     13958     13959     13958     13960     13958     13961
     13961     13962     13961     13963     13961     13964     13964     13965
     13964     13966     13964     13967     13967     13968     13967     13969
     13967     13970     13970     13971     13970     13972     13972     13973
     13972     13974     13974     13975     13974     13976     13974     13977
     13977     13978     13977     13979     13977     13980     13980     13981
     13980     13982     13980     13983     13983     13984     13983     13985
     13983     13986     13986     13987     13986     13988     13986     13989
     13989     13990     13989     13991     13989     13992     13992     13993
     13992     13994     13992     13995     13995     13996     13995     13997
     13995     13998     13946     13947     13947     13949     13947     13948
     13949     13950     13949     13951     13949     13999     13999     14000
     13999     14001     13999     14002     14002     14003     14002     14004
     14002     14005     14005     14006     14005     14007     14005     14008
     14008     14009     14008     14010     14008     14011     14011     14012
     14011     14013     14011     14014     14014     14015     14014     14016
     14014     14017     14017     14018     14017     14019     14017     14020
     14020     14021     14020     14022     14020     14023     14023     14024
     14023     14025     14023     14026     14026     14027     14026     14028
     14026     14029     14029     14030     14029     14031     14029     14032
     14032     14033     14032     14034     14032     14035     14035     14036
     14035     14037     14035     14038     14038     14039     14038     14040
     14038     14041     14042     14043     14042     14044     14042     14045
     14042     14046     14050     14048     14048     14046     14048     14049
     14046     14047     14046     14051     14059     14058     14051     14052
     14051     14053     14051     14057     14057     14054     14054     14058
     14054     14055     14054     14056     14059     14060     14059     14061
     14059     14062     14062     14063     14062     14070     14062     14064
     14070     14071     14070     14072     14070     14073     14064     14065
     14065     14067     14065     14066     14067     14068     14067     14069
     14067     14079     14079     14080     14079     14081     14079     14082
     14082     14083     14082     14084     14082     14085     14085     14086
     14085     14087     14085     14088     14088     14089     14088     14090
     14088     14091     14091     14092     14091     14093     14091     14094
     14094     14095     14094     14096     14094     14097     14097     14098
     14097     14099     14099     14100     14099     14101     14101     14102
     14101     14103     14101     14104     14104     14105     14104     14106
     14104     14107     14107     14108     14107     14109     14107     14110
     14110     14111     14110     14112     14110     14113     14113     14114
     14113     14115     14113     14116     14116     14117     14116     14118
     14116     14119     14119     14120     14119     14121     14119     14122
     14122     14123     14122     14124     14122     14125     14073     14074
     14074     14076     14074     14075     14076     14077     14076     14078
     14076     14126     14126     14127     14126     14128     14126     14129
     14129     14130     14129     14131     14129     14132     14132     14133
     14132     14134     14132     14135     14135     14136     14135     14137
     14135     14138     14138     14139     14138     14140     14138     14141
     14141     14142     14141     14143     14141     14144     14144     14145
     14144     14146     14144     14147     14147     14148     14147     14149
     14147     14150     14150     14151     14150     14152     14150     14153
     14153     14154     14153     14155     14153     14156     14156     14157
     14156     14158     14156     14159     14159     14160     14159     14161
     14159     14162     14162     14163     14162     14164     14162     14165
     14165     14166     14165     14167     14165     14168     14169     14173
     14169     14177     14169     14181     14173     14174     14173     14175
     14173     14176     14177     14178     14177     14179     14177     14180
     14181     14182     14181     14183     14181     14184     14169     14170
     14170     14171     14170     14172     14170     14185     14185     14186
     14185     14187     14185     14191     14192     14193     14191     14188
     14188     14192     14188     14189     14188     14190     14193     14194
     14193     14195     14193     14196     14196     14197     14196     14204
     14196     14198     14204     14205     14204     14206     14204     14207
     14198     14199     14199     14201     14199     14200     14201     14202
     14201     14203     14201     14213     14213     14214     14213     14215
     14213     14216     14216     14217     14216     14218     14216     14219
     14219     14220     14219     14221     14219     14222     14222     14223
     14222     14224     14222     14225     14225     14226     14225     14227
     14225     14228     14228     14229     14228     14230     14228     14231
     14231     14232     14231     14233     14233     14234     14233     14235
     14235     14236     14235     14237     14235     14238     14238     14239
     14238     14240     14238     14241     14241     14242     14241     14243
     14241     14244     14244     14245     14244     14246     14244     14247
     14247     14248     14247     14249     14247     14250     14250     14251
     14250     14252     14250     14253     14253     14254     14253     14255
     14253     14256     14256     14257     14256     14258     14256     14259
     14207     14208     14208     14210     14208     14209     14210     14211
     14210     14212     14210     14260     14260     14261     14260     14262
     14260     14263     14263     14264     14263     14265     14263     14266
     14266     14267     14266     14268     14266     14269     14269     14270
     14269     14271     14269     14272     14272     14273     14272     14274
     14272     14275     14275     14276     14275     14277     14275     14278
     14278     14279     14278     14280     14278     14281     14281     14282
     14281     14283     14281     14284     14284     14285     14284     14286
     14284     14287     14287     14288     14287     14289     14287     14290
     14290     14291     14290     14292     14290     14293     14293     14294
     14293     14295     14293     14296     14296     14297     14296     14298
     14296     14299     14299     14300     14299     14301     14299     14302
     14303     14307     14303     14311     14303     14315     14307     14308
     14307     14309     14307     14310     14311     14312     14311     14313
     14311     14314     14315     14316     14315     14317     14315     14318
     14303     14304     14304     14305     14304     14306     14304     14319
     14319     14320     14319     14321     14319     14325     14326     14327
     14325     14322     14322     14326     14322     14323     14322     14324
     14327     14328     14327     14329     14327     14330     14330     14331
     14330     14338     14330     14332     14338     14339     14338     14340
     14338     14341     14332     14333     14333     14335     14333     14334
     14335     14336     14335     14337     14335     14347     14347     14348
     14347     14349     14347     14350     14350     14351     14350     14352
     14350     14353     14353     14354     14353     14355     14353     14356
     14356     14357     14356     14358     14356     14359     14359     14360
     14359     14361     14359     14362     14362     14363     14362     14364
     14362     14365     14365     14366     14365     14367     14367     14368
     14367     14369     14369     14370     14369     14371     14369     14372
     14372     14373     14372     14374     14372     14375     14375     14376
     14375     14377     14375     14378     14378     14379     14378     14380
     14378     14381     14381     14382     14381     14383     14381     14384
     14384     14385     14384     14386     14384     14387     14387     14388
     14387     14389     14387     14390     14390     14391     14390     14392
     14390     14393     14341     14342     14342     14344     14342     14343
     14344     14345     14344     14346     14344     14394     14394     14395
     14394     14396     14394     14397     14397     14398     14397     14399
     14397     14400     14400     14401     14400     14402     14400     14403
     14403     14404     14403     14405     14403     14406     14406     14407
     14406     14408     14406     14409     14409     14410     14409     14411
     14409     14412     14412     14413     14412     14414     14412     14415
     14415     14416     14415     14417     14415     14418     14418     14419
     14418     14420     14418     14421     14421     14422     14421     14423
     14421     14424     14424     14425     14424     14426     14424     14427
     14427     14428     14427     14429     14427     14430     14430     14431
     14430     14432     14430     14433     14433     14434     14433     14435
     14433     14436     14437     14441     14437     14445     14437     14449
     14441     14442     14441     14443     14441     14444     14445     14446
     14445     14447     14445     14448     14449     14450     14449     14451
     14449     14452     14437     14438     14438     14439     14438     14440
     14438     14453     14453     14454     14453     14455     14453     14459
     14460     14461     14459     14456     14456     14460     14456     14457
     14456     14458     14461     14462     14461     14463     14461     14464
     14464     14465     14464     14472     14464     14466     14472     14473
     14472     14474     14472     14475     14466     14467     14467     14469
     14467     14468     14469     14470     14469     14471     14469     14481
     14481     14482     14481     14483     14481     14484     14484     14485
     14484     14486     14484     14487     14487     14488     14487     14489
     14487     14490     14490     14491     14490     14492     14490     14493
     14493     14494     14493     14495     14493     14496     14496     14497
     14496     14498     14496     14499     14499     14500     14499     14501
     14501     14502     14501     14503     14503     14504     14503     14505
     14503     14506     14506     14507     14506     14508     14506     14509
     14509     14510     14509     14511     14509     14512     14512     14513
     14512     14514     14512     14515     14515     14516     14515     14517
     14515     14518     14518     14519     14518     14520     14518     14521
     14521     14522     14521     14523     14521     14524     14524     14525
     14524     14526     14524     14527     14475     14476     14476     14478
     14476     14477     14478     14479     14478     14480     14478     14528
     14528     14529     14528     14530     14528     14531     14531     14532
     14531     14533     14531     14534     14534     14535     14534     14536
     14534     14537     14537     14538     14537     14539     14537     14540
     14540     14541     14540     14542     14540     14543     14543     14544
     14543     14545     14543     14546     14546     14547     14546     14548
     14546     14549     14549     14550     14549     14551     14549     14552
     14552     14553     14552     14554     14552     14555     14555     14556
     14555     14557     14555     14558     14558     14559     14558     14560
     14558     14561     14561     14562     14561     14563     14561     14564
     14564     14565     14564     14566     14564     14567     14567     14568
     14567     14569     14567     14570     14571     14572     14571     14573
     14571     14574     14571     14575     14579     14577     14577     14575
     14577     14578     14575     14576     14575     14580     14588     14587
     14580     14581     14580     14582     14580     14586     14586     14583
     14583     14587     14583     14584     14583     14585     14588     14589
     14588     14590     14588     14591     14591     14592     14591     14599
     14591     14593     14599     14600     14599     14601     14599     14602
     14593     14594     14594     14596     14594     14595     14596     14597
     14596     14598     14596     14608     14608     14609     14608     14610
     14608     14611     14611     14612     14611     14613     14611     14614
     14614     14615     14614     14616     14614     14617     14617     14618
     14617     14619     14617     14620     14620     14621     14620     14622
     14620     14623     14623     14624     14623     14625     14623     14626
     14626     14627     14626     14628     14628     14629     14628     14630
     14630     14631     14630     14632     14630     14633     14633     14634
     14633     14635     14633     14636     14636     14637     14636     14638
     14636     14639     14639     14640     14639     14641     14639     14642
     14642     14643     14642     14644     14642     14645     14645     14646
     14645     14647     14645     14648     14648     14649     14648     14650
     14648     14651     14651     14652     14651     14653     14651     14654
     14602     14603     14603     14605     14603     14604     14605     14606
     14605     14607     14605     14655     14655     14656     14655     14657
     14655     14658     14658     14659     14658     14660     14658     14661
     14661     14662     14661     14663     14661     14664     14664     14665
     14664     14666     14664     14667     14667     14668     14667     14669
     14667     14670     14670     14671     14670     14672     14670     14673
     14673     14674     14673     14675     14673     14676     14676     14677
     14676     14678     14676     14679     14679     14680     14679     14681
     14679     14682     14682     14683     14682     14684     14682     14685
     14685     14686     14685     14687     14685     14688     14688     14689
     14688     14690     14688     14691     14691     14692     14691     14693
     14691     14694     14694     14695     14694     14696     14694     14697
     14698     14699     14698     14700     14698     14701     14698     14702
     14706     14704     14704     14702     14704     14705     14702     14703
     14702     14707     14715     14714     14707     14708     14707     14709
     14707     14713     14713     14710     14710     14714     14710     14711
     14710     14712     14715     14716     14715     14717     14715     14718
     14718     14719     14718     14726     14718     14720     14726     14727
     14726     14728     14726     14729     14720     14721     14721     14723
     14721     14722     14723     14724     14723     14725     14723     14735
     14735     14736     14735     14737     14735     14738     14738     14739
     14738     14740     14738     14741     14741     14742     14741     14743
     14741     14744     14744     14745     14744     14746     14744     14747
     14747     14748     14747     14749     14747     14750     14750     14751
     14750     14752     14750     14753     14753     14754     14753     14755
     14755     14756     14755     14757     14757     14758     14757     14759
     14757     14760     14760     14761     14760     14762     14760     14763
     14763     14764     14763     14765     14763     14766     14766     14767
     14766     14768     14766     14769     14769     14770     14769     14771
     14769     14772     14772     14773     14772     14774     14772     14775
     14775     14776     14775     14777     14775     14778     14778     14779
     14778     14780     14778     14781     14729     14730     14730     14732
     14730     14731     14732     14733     14732     14734     14732     14782
     14782     14783     14782     14784     14782     14785     14785     14786
     14785     14787     14785     14788     14788     14789     14788     14790
     14788     14791     14791     14792     14791     14793     14791     14794
     14794     14795     14794     14796     14794     14797     14797     14798
     14797     14799     14797     14800     14800     14801     14800     14802
     14800     14803     14803     14804     14803     14805     14803     14806
     14806     14807     14806     14808     14806     14809     14809     14810
     14809     14811     14809     14812     14812     14813     14812     14814
     14812     14815     14815     14816     14815     14817     14815     14818
     14818     14819     14818     14820     14818     14821     14821     14822
     14821     14823     14821     14824     14825     14829     14825     14833
     14825     14837     14829     14830     14829     14831     14829     14832
     14833     14834     14833     14835     14833     14836     14837     14838
     14837     14839     14837     14840     14825     14826     14826     14827
     14826     14828     14826     14841     14841     14842     14841     14843
     14841     14847     14848     14849     14847     14844     14844     14848
     14844     14845     14844     14846     14849     14850     14849     14851
     14849     14852     14852     14853     14852     14860     14852     14854
     14860     14861     14860     14862     14860     14863     14854     14855
     14855     14857     14855     14856     14857     14858     14857     14859
     14857     14869     14869     14870     14869     14871     14869     14872
     14872     14873     14872     14874     14872     14875     14875     14876
     14875     14877     14875     14878     14878     14879     14878     14880
     14878     14881     14881     14882     14881     14883     14881     14884
     14884     14885     14884     14886     14884     14887     14887     14888
     14887     14889     14889     14890     14889     14891     14891     14892
     14891     14893     14891     14894     14894     14895     14894     14896
     14894     14897     14897     14898     14897     14899     14897     14900
     14900     14901     14900     14902     14900     14903     14903     14904
     14903     14905     14903     14906     14906     14907     14906     14908
     14906     14909     14909     14910     14909     14911     14909     14912
     14912     14913     14912     14914     14912     14915     14863     14864
     14864     14866     14864     14865     14866     14867     14866     14868
     14866     14916     14916     14917     14916     14918     14916     14919
     14919     14920     14919     14921     14919     14922     14922     14923
     14922     14924     14922     14925     14925     14926     14925     14927
     14925     14928     14928     14929     14928     14930     14928     14931
     14931     14932     14931     14933     14931     14934     14934     14935
     14934     14936     14934     14937     14937     14938     14937     14939
     14937     14940     14940     14941     14940     14942     14940     14943
     14943     14944     14943     14945     14943     14946     14946     14947
     14946     14948     14946     14949     14949     14950     14949     14951
     14949     14952     14952     14953     14952     14954     14952     14955
     14955     14956     14955     14957     14955     14958     14959     14963
     14959     14967     14959     14971     14963     14964     14963     14965
     14963     14966     14967     14968     14967     14969     14967     14970
     14971     14972     14971     14973     14971     14974     14959     14960
     14960     14961     14960     14962     14960     14975     14975     14976
     14975     14977     14975     14981     14982     14983     14981     14978
     14978     14982     14978     14979     14978     14980     14983     14984
     14983     14985     14983     14986     14986     14987     14986     14994
     14986     14988     14994     14995     14994     14996     14994     14997
     14988     14989     14989     14991     14989     14990     14991     14992
     14991     14993     14991     15003     15003     15004     15003     15005
     15003     15006     15006     15007     15006     15008     15006     15009
     15009     15010     15009     15011     15009     15012     15012     15013
     15012     15014     15012     15015     15015     15016     15015     15017
     15015     15018     15018     15019     15018     15020     15018     15021
     15021     15022     15021     15023     15023     15024     15023     15025
     15025     15026     15025     15027     15025     15028     15028     15029
     15028     15030     15028     15031     15031     15032     15031     15033
     15031     15034     15034     15035     15034     15036     15034     15037
     15037     15038     15037     15039     15037     15040     15040     15041
     15040     15042     15040     15043     15043     15044     15043     15045
     15043     15046     15046     15047     15046     15048     15046     15049
     14997     14998     14998     15000     14998     14999     15000     15001
     15000     15002     15000     15050     15050     15051     15050     15052
     15050     15053     15053     15054     15053     15055     15053     15056
     15056     15057     15056     15058     15056     15059     15059     15060
     15059     15061     15059     15062     15062     15063     15062     15064
     15062     15065     15065     15066     15065     15067     15065     15068
     15068     15069     15068     15070     15068     15071     15071     15072
     15071     15073     15071     15074     15074     15075     15074     15076
     15074     15077     15077     15078     15077     15079     15077     15080
     15080     15081     15080     15082     15080     15083     15083     15084
     15083     15085     15083     15086     15086     15087     15086     15088
     15086     15089     15089     15090     15089     15091     15089     15092
     15093     15097     15093     15101     15093     15105     15097     15098
     15097     15099     15097     15100     15101     15102     15101     15103
     15101     15104     15105     15106     15105     15107     15105     15108
     15093     15094     15094     15095     15094     15096     15094     15109
     15109     15110     15109     15111     15109     15115     15116     15117
     15115     15112     15112     15116     15112     15113     15112     15114
     15117     15118     15117     15119     15117     15120     15120     15121
     15120     15128     15120     15122     15128     15129     15128     15130
     15128     15131     15122     15123     15123     15125     15123     15124
     15125     15126     15125     15127     15125     15137     15137     15138
     15137     15139     15137     15140     15140     15141     15140     15142
     15140     15143     15143     15144     15143     15145     15143     15146
     15146     15147     15146     15148     15146     15149     15149     15150
     15149     15151     15149     15152     15152     15153     15152     15154
     15152     15155     15155     15156     15155     15157     15157     15158
     15157     15159     15159     15160     15159     15161     15159     15162
     15162     15163     15162     15164     15162     15165     15165     15166
     15165     15167     15165     15168     15168     15169     15168     15170
     15168     15171     15171     15172     15171     15173     15171     15174
     15174     15175     15174     15176     15174     15177     15177     15178
     15177     15179     15177     15180     15180     15181     15180     15182
     15180     15183     15131     15132     15132     15134     15132     15133
     15134     15135     15134     15136     15134     15184     15184     15185
     15184     15186     15184     15187     15187     15188     15187     15189
     15187     15190     15190     15191     15190     15192     15190     15193
     15193     15194     15193     15195     15193     15196     15196     15197
     15196     15198     15196     15199     15199     15200     15199     15201
     15199     15202     15202     15203     15202     15204     15202     15205
     15205     15206     15205     15207     15205     15208     15208     15209
     15208     15210     15208     15211     15211     15212     15211     15213
     15211     15214     15214     15215     15214     15216     15214     15217
     15217     15218     15217     15219     15217     15220     15220     15221
     15220     15222     15220     15223     15223     15224     15223     15225
     15223     15226     15227     15231     15227     15235     15227     15239
     15231     15232     15231     15233     15231     15234     15235     15236
     15235     15237     15235     15238     15239     15240     15239     15241
     15239     15242     15227     15228     15228     15229     15228     15230
     15228     15243     15243     15244     15243     15245     15243     15249
     15250     15251     15249     15246     15246     15250     15246     15247
     15246     15248     15251     15252     15251     15253     15251     15254
     15254     15255     15254     15262     15254     15256     15262     15263
     15262     15264     15262     15265     15256     15257     15257     15259
     15257     15258     15259     15260     15259     15261     15259     15271
     15271     15272     15271     15273     15271     15274     15274     15275
     15274     15276     15274     15277     15277     15278     15277     15279
     15277     15280     15280     15281     15280     15282     15280     15283
     15283     15284     15283     15285     15283     15286     15286     15287
     15286     15288     15286     15289     15289     15290     15289     15291
     15291     15292     15291     15293     15293     15294     15293     15295
     15293     15296     15296     15297     15296     15298     15296     15299
     15299     15300     15299     15301     15299     15302     15302     15303
     15302     15304     15302     15305     15305     15306     15305     15307
     15305     15308     15308     15309     15308     15310     15308     15311
     15311     15312     15311     15313     15311     15314     15314     15315
     15314     15316     15314     15317     15265     15266     15266     15268
     15266     15267     15268     15269     15268     15270     15268     15318
     15318     15319     15318     15320     15318     15321     15321     15322
     15321     15323     15321     15324     15324     15325     15324     15326
     15324     15327     15327     15328     15327     15329     15327     15330
     15330     15331     15330     15332     15330     15333     15333     15334
     15333     15335     15333     15336     15336     15337     15336     15338
     15336     15339     15339     15340     15339     15341     15339     15342
     15342     15343     15342     15344     15342     15345     15345     15346
     15345     15347     15345     15348     15348     15349     15348     15350
     15348     15351     15351     15352     15351     15353     15351     15354
     15354     15355     15354     15356     15354     15357     15357     15358
     15357     15359     15357     15360     15361     15362     15361     15363
     15361     15364     15361     15365     15369     15367     15367     15365
     15367     15368     15365     15366     15365     15370     15378     15377
     15370     15371     15370     15372     15370     15376     15376     15373
     15373     15377     15373     15374     15373     15375     15378     15379
     15378     15380     15378     15381     15381     15382     15381     15389
     15381     15383     15389     15390     15389     15391     15389     15392
     15383     15384     15384     15386     15384     15385     15386     15387
     15386     15388     15386     15398     15398     15399     15398     15400
     15398     15401     15401     15402     15401     15403     15401     15404
     15404     15405     15404     15406     15404     15407     15407     15408
     15407     15409     15407     15410     15410     15411     15410     15412
     15410     15413     15413     15414     15413     15415     15413     15416
     15416     15417     15416     15418     15418     15419     15418     15420
     15420     15421     15420     15422     15420     15423     15423     15424
     15423     15425     15423     15426     15426     15427     15426     15428
     15426     15429     15429     15430     15429     15431     15429     15432
     15432     15433     15432     15434     15432     15435     15435     15436
     15435     15437     15435     15438     15438     15439     15438     15440
     15438     15441     15441     15442     15441     15443     15441     15444
     15392     15393     15393     15395     15393     15394     15395     15396
     15395     15397     15395     15445     15445     15446     15445     15447
     15445     15448     15448     15449     15448     15450     15448     15451
     15451     15452     15451     15453     15451     15454     15454     15455
     15454     15456     15454     15457     15457     15458     15457     15459
     15457     15460     15460     15461     15460     15462     15460     15463
     15463     15464     15463     15465     15463     15466     15466     15467
     15466     15468     15466     15469     15469     15470     15469     15471
     15469     15472     15472     15473     15472     15474     15472     15475
     15475     15476     15475     15477     15475     15478     15478     15479
     15478     15480     15478     15481     15481     15482     15481     15483
     15481     15484     15484     15485     15484     15486     15484     15487
     15488     15489     15488     15490     15488     15491     15488     15492
     15496     15494     15494     15492     15494     15495     15492     15493
     15492     15497     15505     15504     15497     15498     15497     15499
     15497     15503     15503     15500     15500     15504     15500     15501
     15500     15502     15505     15506     15505     15507     15505     15508
     15508     15509     15508     15516     15508     15510     15516     15517
     15516     15518     15516     15519     15510     15511     15511     15513
     15511     15512     15513     15514     15513     15515     15513     15525
     15525     15526     15525     15527     15525     15528     15528     15529
     15528     15530     15528     15531     15531     15532     15531     15533
     15531     15534     15534     15535     15534     15536     15534     15537
     15537     15538     15537     15539     15537     15540     15540     15541
     15540     15542     15540     15543     15543     15544     15543     15545
     15545     15546     15545     15547     15547     15548     15547     15549
     15547     15550     15550     15551     15550     15552     15550     15553
     15553     15554     15553     15555     15553     15556     15556     15557
     15556     15558     15556     15559     15559     15560     15559     15561
     15559     15562     15562     15563     15562     15564     15562     15565
     15565     15566     15565     15567     15565     15568     15568     15569
     15568     15570     15568     15571     15519     15520     15520     15522
     15520     15521     15522     15523     15522     15524     15522     15572
     15572     15573     15572     15574     15572     15575     15575     15576
     15575     15577     15575     15578     15578     15579     15578     15580
     15578     15581     15581     15582     15581     15583     15581     15584
     15584     15585     15584     15586     15584     15587     15587     15588
     15587     15589     15587     15590     15590     15591     15590     15592
     15590     15593     15593     15594     15593     15595     15593     15596
     15596     15597     15596     15598     15596     15599     15599     15600
     15599     15601     15599     15602     15602     15603     15602     15604
     15602     15605     15605     15606     15605     15607     15605     15608
     15608     15609     15608     15610     15608     15611     15611     15612
     15611     15613     15611     15614     15615     15619     15615     15623
     15615     15627     15619     15620     15619     15621     15619     15622
     15623     15624     15623     15625     15623     15626     15627     15628
     15627     15629     15627     15630     15615     15616     15616     15617
     15616     15618     15616     15631     15631     15632     15631     15633
     15631     15637     15638     15639     15637     15634     15634     15638
     15634     15635     15634     15636     15639     15640     15639     15641
     15639     15642     15642     15643     15642     15650     15642     15644
     15650     15651     15650     15652     15650     15653     15644     15645
     15645     15647     15645     15646     15647     15648     15647     15649
     15647     15659     15659     15660     15659     15661     15659     15662
     15662     15663     15662     15664     15662     15665     15665     15666
     15665     15667     15665     15668     15668     15669     15668     15670
     15668     15671     15671     15672     15671     15673     15671     15674
     15674     15675     15674     15676     15674     15677     15677     15678
     15677     15679     15679     15680     15679     15681     15681     15682
     15681     15683     15681     15684     15684     15685     15684     15686
     15684     15687     15687     15688     15687     15689     15687     15690
     15690     15691     15690     15692     15690     15693     15693     15694
     15693     15695     15693     15696     15696     15697     15696     15698
     15696     15699     15699     15700     15699     15701     15699     15702
     15702     15703     15702     15704     15702     15705     15653     15654
     15654     15656     15654     15655     15656     15657     15656     15658
     15656     15706     15706     15707     15706     15708     15706     15709
     15709     15710     15709     15711     15709     15712     15712     15713
     15712     15714     15712     15715     15715     15716     15715     15717
     15715     15718     15718     15719     15718     15720     15718     15721
     15721     15722     15721     15723     15721     15724     15724     15725
     15724     15726     15724     15727     15727     15728     15727     15729
     15727     15730     15730     15731     15730     15732     15730     15733
     15733     15734     15733     15735     15733     15736     15736     15737
     15736     15738     15736     15739     15739     15740     15739     15741
     15739     15742     15742     15743     15742     15744     15742     15745
     15745     15746     15745     15747     15745     15748     15749     15753
     15749     15757     15749     15761     15753     15754     15753     15755
     15753     15756     15757     15758     15757     15759     15757     15760
     15761     15762     15761     15763     15761     15764     15749     15750
     15750     15751     15750     15752     15750     15765     15765     15766
     15765     15767     15765     15771     15772     15773     15771     15768
     15768     15772     15768     15769     15768     15770     15773     15774
     15773     15775     15773     15776     15776     15777     15776     15784
     15776     15778     15784     15785     15784     15786     15784     15787
     15778     15779     15779     15781     15779     15780     15781     15782
     15781     15783     15781     15793     15793     15794     15793     15795
     15793     15796     15796     15797     15796     15798     15796     15799
     15799     15800     15799     15801     15799     15802     15802     15803
     15802     15804     15802     15805     15805     15806     15805     15807
     15805     15808     15808     15809     15808     15810     15808     15811
     15811     15812     15811     15813     15813     15814     15813     15815
     15815     15816     15815     15817     15815     15818     15818     15819
     15818     15820     15818     15821     15821     15822     15821     15823
     15821     15824     15824     15825     15824     15826     15824     15827
     15827     15828     15827     15829     15827     15830     15830     15831
     15830     15832     15830     15833     15833     15834     15833     15835
     15833     15836     15836     15837     15836     15838     15836     15839
     15787     15788     15788     15790     15788     15789     15790     15791
     15790     15792     15790     15840     15840     15841     15840     15842
     15840     15843     15843     15844     15843     15845     15843     15846
     15846     15847     15846     15848     15846     15849     15849     15850
     15849     15851     15849     15852     15852     15853     15852     15854
     15852     15855     15855     15856     15855     15857     15855     15858
     15858     15859     15858     15860     15858     15861     15861     15862
     15861     15863     15861     15864     15864     15865     15864     15866
     15864     15867     15867     15868     15867     15869     15867     15870
     15870     15871     15870     15872     15870     15873     15873     15874
     15873     15875     15873     15876     15876     15877     15876     15878
     15876     15879     15879     15880     15879     15881     15879     15882
     15883     15887     15883     15891     15883     15895     15887     15888
     15887     15889     15887     15890     15891     15892     15891     15893
     15891     15894     15895     15896     15895     15897     15895     15898
     15883     15884     15884     15885     15884     15886     15884     15899
     15899     15900     15899     15901     15899     15905     15906     15907
     15905     15902     15902     15906     15902     15903     15902     15904
     15907     15908     15907     15909     15907     15910     15910     15911
     15910     15918     15910     15912     15918     15919     15918     15920
     15918     15921     15912     15913     15913     15915     15913     15914
     15915     15916     15915     15917     15915     15927     15927     15928
     15927     15929     15927     15930     15930     15931     15930     15932
     15930     15933     15933     15934     15933     15935     15933     15936
     15936     15937     15936     15938     15936     15939     15939     15940
     15939     15941     15939     15942     15942     15943     15942     15944
     15942     15945     15945     15946     15945     15947     15947     15948
     15947     15949     15949     15950     15949     15951     15949     15952
     15952     15953     15952     15954     15952     15955     15955     15956
     15955     15957     15955     15958     15958     15959     15958     15960
     15958     15961     15961     15962     15961     15963     15961     15964
     15964     15965     15964     15966     15964     15967     15967     15968
     15967     15969     15967     15970     15970     15971     15970     15972
     15970     15973     15921     15922     15922     15924     15922     15923
     15924     15925     15924     15926     15924     15974     15974     15975
     15974     15976     15974     15977     15977     15978     15977     15979
     15977     15980     15980     15981     15980     15982     15980     15983
     15983     15984     15983     15985     15983     15986     15986     15987
     15986     15988     15986     15989     15989     15990     15989     15991
     15989     15992     15992     15993     15992     15994     15992     15995
     15995     15996     15995     15997     15995     15998     15998     15999
     15998     16000     15998     16001     16001     16002     16001     16003
     16001     16004     16004     16005     16004     16006     16004     16007
     16007     16008     16007     16009     16007     16010     16010     16011
     16010     16012     16010     16013     16013     16014     16013     16015
     16013     16016     16017     16018     16017     16019     16017     16020
     16017     16021     16025     16023     16023     16021     16023     16024
     16021     16022     16021     16026     16034     16033     16026     16027
     16026     16028     16026     16032     16032     16029     16029     16033
     16029     16030     16029     16031     16034     16035     16034     16036
     16034     16037     16037     16038     16037     16045     16037     16039
     16045     16046     16045     16047     16045     16048     16039     16040
     16040     16042     16040     16041     16042     16043     16042     16044
     16042     16054     16054     16055     16054     16056     16054     16057
     16057     16058     16057     16059     16057     16060     16060     16061
     16060     16062     16060     16063     16063     16064     16063     16065
     16063     16066     16066     16067     16066     16068     16066     16069
     16069     16070     16069     16071     16069     16072     16072     16073
     16072     16074     16074     16075     16074     16076     16076     16077
     16076     16078     16076     16079     16079     16080     16079     16081
     16079     16082     16082     16083     16082     16084     16082     16085
     16085     16086     16085     16087     16085     16088     16088     16089
     16088     16090     16088     16091     16091     16092     16091     16093
     16091     16094     16094     16095     16094     16096     16094     16097
     16097     16098     16097     16099     16097     16100     16048     16049
     16049     16051     16049     16050     16051     16052     16051     16053
     16051     16101     16101     16102     16101     16103     16101     16104
     16104     16105     16104     16106     16104     16107     16107     16108
     16107     16109     16107     16110     16110     16111     16110     16112
     16110     16113     16113     16114     16113     16115     16113     16116
     16116     16117     16116     16118     16116     16119     16119     16120
     16119     16121     16119     16122     16122     16123     16122     16124
     16122     16125     16125     16126     16125     16127     16125     16128
     16128     16129     16128     16130     16128     16131     16131     16132
     16131     16133     16131     16134     16134     16135     16134     16136
     16134     16137     16137     16138     16137     16139     16137     16140
     16140     16141     16140     16142     16140     16143     16144     16148
     16144     16152     16144     16156     16148     16149     16148     16150
     16148     16151     16152     16153     16152     16154     16152     16155
     16156     16157     16156     16158     16156     16159     16144     16145
     16145     16146     16145     16147     16145     16160     16160     16161
     16160     16162     16160     16166     16167     16168     16166     16163
     16163     16167     16163     16164     16163     16165     16168     16169
     16168     16170     16168     16171     16171     16172     16171     16179
     16171     16173     16179     16180     16179     16181     16179     16182
     16173     16174     16174     16176     16174     16175     16176     16177
     16176     16178     16176     16188     16188     16189     16188     16190
     16188     16191     16191     16192     16191     16193     16191     16194
     16194     16195     16194     16196     16194     16197     16197     16198
     16197     16199     16197     16200     16200     16201     16200     16202
     16200     16203     16203     16204     16203     16205     16203     16206
     16206     16207     16206     16208     16208     16209     16208     16210
     16210     16211     16210     16212     16210     16213     16213     16214
     16213     16215     16213     16216     16216     16217     16216     16218
     16216     16219     16219     16220     16219     16221     16219     16222
     16222     16223     16222     16224     16222     16225     16225     16226
     16225     16227     16225     16228     16228     16229     16228     16230
     16228     16231     16231     16232     16231     16233     16231     16234
     16182     16183     16183     16185     16183     16184     16185     16186
     16185     16187     16185     16235     16235     16236     16235     16237
     16235     16238     16238     16239     16238     16240     16238     16241
     16241     16242     16241     16243     16241     16244     16244     16245
     16244     16246     16244     16247     16247     16248     16247     16249
     16247     16250     16250     16251     16250     16252     16250     16253
     16253     16254     16253     16255     16253     16256     16256     16257
     16256     16258     16256     16259     16259     16260     16259     16261
     16259     16262     16262     16263     16262     16264     16262     16265
     16265     16266     16265     16267     16265     16268     16268     16269
     16268     16270     16268     16271     16271     16272     16271     16273
     16271     16274     16274     16275     16274     16276     16274     16277
     16278     16282     16278     16286     16278     16290     16282     16283
     16282     16284     16282     16285     16286     16287     16286     16288
     16286     16289     16290     16291     16290     16292     16290     16293
     16278     16279     16279     16280     16279     16281     16279     16294
     16294     16295     16294     16296     16294     16300     16301     16302
     16300     16297     16297     16301     16297     16298     16297     16299
     16302     16303     16302     16304     16302     16305     16305     16306
     16305     16313     16305     16307     16313     16314     16313     16315
     16313     16316     16307     16308     16308     16310     16308     16309
     16310     16311     16310     16312     16310     16322     16322     16323
     16322     16324     16322     16325     16325     16326     16325     16327
     16325     16328     16328     16329     16328     16330     16328     16331
     16331     16332     16331     16333     16331     16334     16334     16335
     16334     16336     16334     16337     16337     16338     16337     16339
     16337     16340     16340     16341     16340     16342     16342     16343
     16342     16344     16344     16345     16344     16346     16344     16347
     16347     16348     16347     16349     16347     16350     16350     16351
     16350     16352     16350     16353     16353     16354     16353     16355
     16353     16356     16356     16357     16356     16358     16356     16359
     16359     16360     16359     16361     16359     16362     16362     16363
     16362     16364     16362     16365     16365     16366     16365     16367
     16365     16368     16316     16317     16317     16319     16317     16318
     16319     16320     16319     16321     16319     16369     16369     16370
     16369     16371     16369     16372     16372     16373     16372     16374
     16372     16375     16375     16376     16375     16377     16375     16378
     16378     16379     16378     16380     16378     16381     16381     16382
     16381     16383     16381     16384     16384     16385     16384     16386
     16384     16387     16387     16388     16387     16389     16387     16390
     16390     16391     16390     16392     16390     16393     16393     16394
     16393     16395     16393     16396     16396     16397     16396     16398
     16396     16399     16399     16400     16399     16401     16399     16402
     16402     16403     16402     16404     16402     16405     16405     16406
     16405     16407     16405     16408     16408     16409     16408     16410
     16408     16411     16412     16413     16412     16414     16412     16415
     16412     16416     16420     16418     16418     16416     16418     16419
     16416     16417     16416     16421     16429     16428     16421     16422
     16421     16423     16421     16427     16427     16424     16424     16428
     16424     16425     16424     16426     16429     16430     16429     16431
     16429     16432     16432     16433     16432     16440     16432     16434
     16440     16441     16440     16442     16440     16443     16434     16435
     16435     16437     16435     16436     16437     16438     16437     16439
     16437     16449     16449     16450     16449     16451     16449     16452
     16452     16453     16452     16454     16452     16455     16455     16456
     16455     16457     16455     16458     16458     16459     16458     16460
     16458     16461     16461     16462     16461     16463     16461     16464
     16464     16465     16464     16466     16464     16467     16467     16468
     16467     16469     16469     16470     16469     16471     16471     16472
     16471     16473     16471     16474     16474     16475     16474     16476
     16474     16477     16477     16478     16477     16479     16477     16480
     16480     16481     16480     16482     16480     16483     16483     16484
     16483     16485     16483     16486     16486     16487     16486     16488
     16486     16489     16489     16490     16489     16491     16489     16492
     16492     16493     16492     16494     16492     16495     16443     16444
     16444     16446     16444     16445     16446     16447     16446     16448
     16446     16496     16496     16497     16496     16498     16496     16499
     16499     16500     16499     16501     16499     16502     16502     16503
     16502     16504     16502     16505     16505     16506     16505     16507
     16505     16508     16508     16509     16508     16510     16508     16511
     16511     16512     16511     16513     16511     16514     16514     16515
     16514     16516     16514     16517     16517     16518     16517     16519
     16517     16520     16520     16521     16520     16522     16520     16523
     16523     16524     16523     16525     16523     16526     16526     16527
     16526     16528     16526     16529     16529     16530     16529     16531
     16529     16532     16532     16533     16532     16534     16532     16535
     16535     16536     16535     16537     16535     16538     16539     16543
     16539     16547     16539     16551     16543     16544     16543     16545
     16543     16546     16547     16548     16547     16549     16547     16550
     16551     16552     16551     16553     16551     16554     16539     16540
     16540     16541     16540     16542     16540     16555     16555     16556
     16555     16557     16555     16561     16562     16563     16561     16558
     16558     16562     16558     16559     16558     16560     16563     16564
     16563     16565     16563     16566     16566     16567     16566     16574
     16566     16568     16574     16575     16574     16576     16574     16577
     16568     16569     16569     16571     16569     16570     16571     16572
     16571     16573     16571     16583     16583     16584     16583     16585
     16583     16586     16586     16587     16586     16588     16586     16589
     16589     16590     16589     16591     16589     16592     16592     16593
     16592     16594     16592     16595     16595     16596     16595     16597
     16595     16598     16598     16599     16598     16600     16598     16601
     16601     16602     16601     16603     16603     16604     16603     16605
     16605     16606     16605     16607     16605     16608     16608     16609
     16608     16610     16608     16611     16611     16612     16611     16613
     16611     16614     16614     16615     16614     16616     16614     16617
     16617     16618     16617     16619     16617     16620     16620     16621
     16620     16622     16620     16623     16623     16624     16623     16625
     16623     16626     16626     16627     16626     16628     16626     16629
     16577     16578     16578     16580     16578     16579     16580     16581
     16580     16582     16580     16630     16630     16631     16630     16632
     16630     16633     16633     16634     16633     16635     16633     16636
     16636     16637     16636     16638     16636     16639     16639     16640
     16639     16641     16639     16642     16642     16643     16642     16644
     16642     16645     16645     16646     16645     16647     16645     16648
     16648     16649     16648     16650     16648     16651     16651     16652
     16651     16653     16651     16654     16654     16655     16654     16656
     16654     16657     16657     16658     16657     16659     16657     16660
     16660     16661     16660     16662     16660     16663     16663     16664
     16663     16665     16663     16666     16666     16667     16666     16668
     16666     16669     16669     16670     16669     16671     16669     16672
     16673     16677     16673     16681     16673     16685     16677     16678
     16677     16679     16677     16680     16681     16682     16681     16683
     16681     16684     16685     16686     16685     16687     16685     16688
     16673     16674     16674     16675     16674     16676     16674     16689
     16689     16690     16689     16691     16689     16695     16696     16697
     16695     16692     16692     16696     16692     16693     16692     16694
     16697     16698     16697     16699     16697     16700     16700     16701
     16700     16708     16700     16702     16708     16709     16708     16710
     16708     16711     16702     16703     16703     16705     16703     16704
     16705     16706     16705     16707     16705     16717     16717     16718
     16717     16719     16717     16720     16720     16721     16720     16722
     16720     16723     16723     16724     16723     16725     16723     16726
     16726     16727     16726     16728     16726     16729     16729     16730
     16729     16731     16729     16732     16732     16733     16732     16734
     16732     16735     16735     16736     16735     16737     16737     16738
     16737     16739     16739     16740     16739     16741     16739     16742
     16742     16743     16742     16744     16742     16745     16745     16746
     16745     16747     16745     16748     16748     16749     16748     16750
     16748     16751     16751     16752     16751     16753     16751     16754
     16754     16755     16754     16756     16754     16757     16757     16758
     16757     16759     16757     16760     16760     16761     16760     16762
     16760     16763     16711     16712     16712     16714     16712     16713
     16714     16715     16714     16716     16714     16764     16764     16765
     16764     16766     16764     16767     16767     16768     16767     16769
     16767     16770     16770     16771     16770     16772     16770     16773
     16773     16774     16773     16775     16773     16776     16776     16777
     16776     16778     16776     16779     16779     16780     16779     16781
     16779     16782     16782     16783     16782     16784     16782     16785
     16785     16786     16785     16787     16785     16788     16788     16789
     16788     16790     16788     16791     16791     16792     16791     16793
     16791     16794     16794     16795     16794     16796     16794     16797
     16797     16798     16797     16799     16797     16800     16800     16801
     16800     16802     16800     16803     16803     16804     16803     16805
     16803     16806     16807     16811     16807     16815     16807     16819
     16811     16812     16811     16813     16811     16814     16815     16816
     16815     16817     16815     16818     16819     16820     16819     16821
     16819     16822     16807     16808     16808     16809     16808     16810
     16808     16823     16823     16824     16823     16825     16823     16829
     16830     16831     16829     16826     16826     16830     16826     16827
     16826     16828     16831     16832     16831     16833     16831     16834
     16834     16835     16834     16842     16834     16836     16842     16843
     16842     16844     16842     16845     16836     16837     16837     16839
     16837     16838     16839     16840     16839     16841     16839     16851
     16851     16852     16851     16853     16851     16854     16854     16855
     16854     16856     16854     16857     16857     16858     16857     16859
     16857     16860     16860     16861     16860     16862     16860     16863
     16863     16864     16863     16865     16863     16866     16866     16867
     16866     16868     16866     16869     16869     16870     16869     16871
     16871     16872     16871     16873     16873     16874     16873     16875
     16873     16876     16876     16877     16876     16878     16876     16879
     16879     16880     16879     16881     16879     16882     16882     16883
     16882     16884     16882     16885     16885     16886     16885     16887
     16885     16888     16888     16889     16888     16890     16888     16891
     16891     16892     16891     16893     16891     16894     16894     16895
     16894     16896     16894     16897     16845     16846     16846     16848
     16846     16847     16848     16849     16848     16850     16848     16898
     16898     16899     16898     16900     16898     16901     16901     16902
     16901     16903     16901     16904     16904     16905     16904     16906
     16904     16907     16907     16908     16907     16909     16907     16910
     16910     16911     16910     16912     16910     16913     16913     16914
     16913     16915     16913     16916     16916     16917     16916     16918
     16916     16919     16919     16920     16919     16921     16919     16922
     16922     16923     16922     16924     16922     16925     16925     16926
     16925     16927     16925     16928     16928     16929     16928     16930
     16928     16931     16931     16932     16931     16933     16931     16934
     16934     16935     16934     16936     16934     16937     16937     16938
     16937     16939     16937     16940     16941     16942     16941     16943
     16941     16944     16941     16945     16949     16947     16947     16945
     16947     16948     16945     16946     16945     16950     16958     16957
     16950     16951     16950     16952     16950     16956     16956     16953
     16953     16957     16953     16954     16953     16955     16958     16959
     16958     16960     16958     16961     16961     16962     16961     16969
     16961     16963     16969     16970     16969     16971     16969     16972
     16963     16964     16964     16966     16964     16965     16966     16967
     16966     16968     16966     16978     16978     16979     16978     16980
     16978     16981     16981     16982     16981     16983     16981     16984
     16984     16985     16984     16986     16984     16987     16987     16988
     16987     16989     16987     16990     16990     16991     16990     16992
     16990     16993     16993     16994     16993     16995     16993     16996
     16996     16997     16996     16998     16998     16999     16998     17000
     17000     17001     17000     17002     17000     17003     17003     17004
     17003     17005     17003     17006     17006     17007     17006     17008
     17006     17009     17009     17010     17009     17011     17009     17012
     17012     17013     17012     17014     17012     17015     17015     17016
     17015     17017     17015     17018     17018     17019     17018     17020
     17018     17021     17021     17022     17021     17023     17021     17024
     16972     16973     16973     16975     16973     16974     16975     16976
     16975     16977     16975     17025     17025     17026     17025     17027
     17025     17028     17028     17029     17028     17030     17028     17031
     17031     17032     17031     17033     17031     17034     17034     17035
     17034     17036     17034     17037     17037     17038     17037     17039
     17037     17040     17040     17041     17040     17042     17040     17043
     17043     17044     17043     17045     17043     17046     17046     17047
     17046     17048     17046     17049     17049     17050     17049     17051
     17049     17052     17052     17053     17052     17054     17052     17055
     17055     17056     17055     17057     17055     17058     17058     17059
     17058     17060     17058     17061     17061     17062     17061     17063
     17061     17064     17064     17065     17064     17066     17064     17067
     17068     17072     17068     17076     17068     17080     17072     17073
     17072     17074     17072     17075     17076     17077     17076     17078
     17076     17079     17080     17081     17080     17082     17080     17083
     17068     17069     17069     17070     17069     17071     17069     17084
     17084     17085     17084     17086     17084     17090     17091     17092
     17090     17087     17087     17091     17087     17088     17087     17089
     17092     17093     17092     17094     17092     17095     17095     17096
     17095     17103     17095     17097     17103     17104     17103     17105
     17103     17106     17097     17098     17098     17100     17098     17099
     17100     17101     17100     17102     17100     17112     17112     17113
     17112     17114     17112     17115     17115     17116     17115     17117
     17115     17118     17118     17119     17118     17120     17118     17121
     17121     17122     17121     17123     17121     17124     17124     17125
     17124     17126     17124     17127     17127     17128     17127     17129
     17127     17130     17130     17131     17130     17132     17132     17133
     17132     17134     17134     17135     17134     17136     17134     17137
     17137     17138     17137     17139     17137     17140     17140     17141
     17140     17142     17140     17143     17143     17144     17143     17145
     17143     17146     17146     17147     17146     17148     17146     17149
     17149     17150     17149     17151     17149     17152     17152     17153
     17152     17154     17152     17155     17155     17156     17155     17157
     17155     17158     17106     17107     17107     17109     17107     17108
     17109     17110     17109     17111     17109     17159     17159     17160
     17159     17161     17159     17162     17162     17163     17162     17164
     17162     17165     17165     17166     17165     17167     17165     17168
     17168     17169     17168     17170     17168     17171     17171     17172
     17171     17173     17171     17174     17174     17175     17174     17176
     17174     17177     17177     17178     17177     17179     17177     17180
     17180     17181     17180     17182     17180     17183     17183     17184
     17183     17185     17183     17186     17186     17187     17186     17188
     17186     17189     17189     17190     17189     17191     17189     17192
     17192     17193     17192     17194     17192     17195     17195     17196
     17195     17197     17195     17198     17198     17199     17198     17200
     17198     17201     17202     17206     17202     17210     17202     17214
     17206     17207     17206     17208     17206     17209     17210     17211
     17210     17212     17210     17213     17214     17215     17214     17216
     17214     17217     17202     17203     17203     17204     17203     17205
     17203     17218     17218     17219     17218     17220     17218     17224
     17225     17226     17224     17221     17221     17225     17221     17222
     17221     17223     17226     17227     17226     17228     17226     17229
     17229     17230     17229     17237     17229     17231     17237     17238
     17237     17239     17237     17240     17231     17232     17232     17234
     17232     17233     17234     17235     17234     17236     17234     17246
     17246     17247     17246     17248     17246     17249     17249     17250
     17249     17251     17249     17252     17252     17253     17252     17254
     17252     17255     17255     17256     17255     17257     17255     17258
     17258     17259     17258     17260     17258     17261     17261     17262
     17261     17263     17261     17264     17264     17265     17264     17266
     17266     17267     17266     17268     17268     17269     17268     17270
     17268     17271     17271     17272     17271     17273     17271     17274
     17274     17275     17274     17276     17274     17277     17277     17278
     17277     17279     17277     17280     17280     17281     17280     17282
     17280     17283     17283     17284     17283     17285     17283     17286
     17286     17287     17286     17288     17286     17289     17289     17290
     17289     17291     17289     17292     17240     17241     17241     17243
     17241     17242     17243     17244     17243     17245     17243     17293
     17293     17294     17293     17295     17293     17296     17296     17297
     17296     17298     17296     17299     17299     17300     17299     17301
     17299     17302     17302     17303     17302     17304     17302     17305
     17305     17306     17305     17307     17305     17308     17308     17309
     17308     17310     17308     17311     17311     17312     17311     17313
     17311     17314     17314     17315     17314     17316     17314     17317
     17317     17318     17317     17319     17317     17320     17320     17321
     17320     17322     17320     17323     17323     17324     17323     17325
     17323     17326     17326     17327     17326     17328     17326     17329
     17329     17330     17329     17331     17329     17332     17332     17333
     17332     17334     17332     17335     17336     17337     17336     17338
     17337     17338     17339     17340     17339     17341     17340     17341
     17342     17343     17342     17344     17343     17344     17345     17346
     17345     17347     17346     17347     17348     17349     17348     17350
     17349     17350     17351     17352     17351     17353     17352     17353
     17354     17355     17354     17356     17355     17356     17357     17358
     17357     17359     17358     17359     17360     17361     17360     17362
     17361     17362     17363     17364     17363     17365     17364     17365
     17366     17367     17366     17368     17367     17368     17369     17370
     17369     17371     17370     17371     17372     17373     17372     17374
     17373     17374     17375     17376     17375     17377     17376     17377
     17378     17379     17378     17380     17379     17380     17381     17382
     17381     17383     17382     17383     17384     17385     17384     17386
     17385     17386     17387     17388     17387     17389     17388     17389
     17390     17391     17390     17392     17391     17392     17393     17394
     17393     17395     17394     17395     17396     17397     17396     17398
     17397     17398     17399     17400     17399     17401     17400     17401
     17402     17403     17402     17404     17403     17404     17405     17406
     17405     17407     17406     17407     17408     17409     17408     17410
     17409     17410     17411     17412     17411     17413     17412     17413
     17414     17415     17414     17416     17415     17416     17417     17418
     17417     17419     17418     17419     17420     17421     17420     17422
     17421     17422     17423     17424     17423     17425     17424     17425
     17426     17427     17426     17428     17427     17428     17429     17430
     17429     17431     17430     17431     17432     17433     17432     17434
     17433     17434     17435     17436     17435     17437     17436     17437
     17438     17439     17438     17440     17439     17440     17441     17442
     17441     17443     17442     17443     17444     17445     17444     17446
     17445     17446     17447     17448     17447     17449     17448     17449
     17450     17451     17450     17452     17451     17452     17453     17454
     17453     17455     17454     17455     17456     17457     17456     17458
     17457     17458     17459     17460     17459     17461     17460     17461
     17462     17463     17462     17464     17463     17464     17465     17466
     17465     17467     17466     17467     17468     17469     17468     17470
     17469     17470     17471     17472     17471     17473     17472     17473
     17474     17475     17474     17476     17475     17476     17477     17478
     17477     17479     17478     17479     17480     17481     17480     17482
     17481     17482     17483     17484     17483     17485     17484     17485
     17486     17487     17486     17488     17487     17488     17489     17490
     17489     17491     17490     17491     17492     17493     17492     17494
     17493     17494     17495     17496     17495     17497     17496     17497
     17498     17499     17498     17500     17499     17500     17501     17502
     17501     17503     17502     17503     17504     17505     17504     17506
     17505     17506     17507     17508     17507     17509     17508     17509
     17510     17511     17510     17512     17511     17512     17513     17514
     17513     17515     17514     17515     17516     17517     17516     17518
     17517     17518     17519     17520     17519     17521     17520     17521
     17522     17523     17522     17524     17523     17524     17525     17526
     17525     17527     17526     17527     17528     17529     17528     17530
     17529     17530     17531     17532     17531     17533     17532     17533
     17534     17535     17534     17536     17535     17536     17537     17538
     17537     17539     17538     17539     17540     17541     17540     17542
     17541     17542     17543     17544     17543     17545     17544     17545
     17546     17547     17546     17548     17547     17548     17549     17550
     17549     17551     17550     17551     17552     17553     17552     17554
     17553     17554     17555     17556     17555     17557     17556     17557
     17558     17559     17558     17560     17559     17560     17561     17562
     17561     17563     17562     17563     17564     17565     17564     17566
     17565     17566     17567     17568     17567     17569     17568     17569
     17570     17571     17570     17572     17571     17572     17573     17574
     17573     17575     17574     17575     17576     17577     17576     17578
     17577     17578     17579     17580     17579     17581     17580     17581
     17582     17583     17582     17584     17583     17584     17585     17586
     17585     17587     17586     17587     17588     17589     17588     17590
     17589     17590     17591     17592     17591     17593     17592     17593
     17594     17595     17594     17596     17595     17596     17597     17598
     17597     17599     17598     17599     17600     17601     17600     17602
     17601     17602     17603     17604     17603     17605     17604     17605
     17606     17607     17606     17608     17607     17608     17609     17610
     17609     17611     17610     17611     17612     17613     17612     17614
     17613     17614     17615     17616     17615     17617     17616     17617
     17618     17619     17618     17620     17619     17620     17621     17622
     17621     17623     17622     17623     17624     17625     17624     17626
     17625     17626     17627     17628     17627     17629     17628     17629
     17630     17631     17630     17632     17631     17632     17633     17634
     17633     17635     17634     17635     17636     17637     17636     17638
     17637     17638     17639     17640     17639     17641     17640     17641
     17642     17643     17642     17644     17643     17644     17645     17646
     17645     17647     17646     17647     17648     17649     17648     17650
     17649     17650     17651     17652     17651     17653     17652     17653
     17654     17655     17654     17656     17655     17656     17657     17658
     17657     17659     17658     17659     17660     17661     17660     17662
     17661     17662     17663     17664     17663     17665     17664     17665
     17666     17667     17666     17668     17667     17668     17669     17670
     17669     17671     17670     17671     17672     17673     17672     17674
     17673     17674     17675     17676     17675     17677     17676     17677
     17678     17679     17678     17680     17679     17680     17681     17682
     17681     17683     17682     17683     17684     17685     17684     17686
     17685     17686     17687     17688     17687     17689     17688     17689
     17690     17691     17690     17692     17691     17692     17693     17694
     17693     17695     17694     17695     17696     17697     17696     17698
     17697     17698     17699     17700     17699     17701     17700     17701
     17702     17703     17702     17704     17703     17704     17705     17706
     17705     17707     17706     17707     17708     17709     17708     17710
     17709     17710     17711     17712     17711     17713     17712     17713
     17714     17715     17714     17716     17715     17716     17717     17718
     17717     17719     17718     17719     17720     17721     17720     17722
     17721     17722     17723     17724     17723     17725     17724     17725
     17726     17727     17726     17728     17727     17728     17729     17730
     17729     17731     17730     17731     17732     17733     17732     17734
     17733     17734     17735     17736     17735     17737     17736     17737
     17738     17739     17738     17740     17739     17740     17741     17742
     17741     17743     17742     17743     17744     17745     17744     17746
     17745     17746     17747     17748     17747     17749     17748     17749
     17750     17751     17750     17752     17751     17752     17753     17754
     17753     17755     17754     17755     17756     17757     17756     17758
     17757     17758     17759     17760     17759     17761     17760     17761
     17762     17763     17762     17764     17763     17764     17765     17766
     17765     17767     17766     17767     17768     17769     17768     17770
     17769     17770     17771     17772     17771     17773     17772     17773
     17774     17775     17774     17776     17775     17776     17777     17778
     17777     17779     17778     17779     17780     17781     17780     17782
     17781     17782     17783     17784     17783     17785     17784     17785
     17786     17787     17786     17788     17787     17788     17789     17790
     17789     17791     17790     17791     17792     17793     17792     17794
     17793     17794     17795     17796     17795     17797     17796     17797
     17798     17799     17798     17800     17799     17800     17801     17802
     17801     17803     17802     17803     17804     17805     17804     17806
     17805     17806     17807     17808     17807     17809     17808     17809
     17810     17811     17810     17812     17811     17812     17813     17814
     17813     17815     17814     17815     17816     17817     17816     17818
     17817     17818     17819     17820     17819     17821     17820     17821
     17822     17823     17822     17824     17823     17824     17825     17826
     17825     17827     17826     17827     17828     17829     17828     17830
     17829     17830     17831     17832     17831     17833     17832     17833
     17834     17835     17834     17836     17835     17836     17837     17838
     17837     17839     17838     17839     17840     17841     17840     17842
     17841     17842     17843     17844     17843     17845     17844     17845
     17846     17847     17846     17848     17847     17848     17849     17850
     17849     17851     17850     17851     17852     17853     17852     17854
     17853     17854     17855     17856     17855     17857     17856     17857
     17858     17859     17858     17860     17859     17860     17861     17862
     17861     17863     17862     17863     17864     17865     17864     17866
     17865     17866     17867     17868     17867     17869     17868     17869
     17870     17871     17870     17872     17871     17872     17873     17874
     17873     17875     17874     17875     17876     17877     17876     17878
     17877     17878     17879     17880     17879     17881     17880     17881
     17882     17883     17882     17884     17883     17884     17885     17886
     17885     17887     17886     17887     17888     17889     17888     17890
     17889     17890     17891     17892     17891     17893     17892     17893
     17894     17895     17894     17896     17895     17896     17897     17898
     17897     17899     17898     17899     17900     17901     17900     17902
     17901     17902     17903     17904     17903     17905     17904     17905
     17906     17907     17906     17908     17907     17908     17909     17910
     17909     17911     17910     17911     17912     17913     17912     17914
     17913     17914     17915     17916     17915     17917     17916     17917
     17918     17919     17918     17920     17919     17920     17921     17922
     17921     17923     17922     17923     17924     17925     17924     17926
     17925     17926     17927     17928     17927     17929     17928     17929
     17930     17931     17930     17932     17931     17932     17933     17934
     17933     17935     17934     17935     17936     17937     17936     17938
     17937     17938     17939     17940     17939     17941     17940     17941
     17942     17943     17942     17944     17943     17944     17945     17946
     17945     17947     17946     17947     17948     17949     17948     17950
     17949     17950     17951     17952     17951     17953     17952     17953
     17954     17955     17954     17956     17955     17956     17957     17958
     17957     17959     17958     17959     17960     17961     17960     17962
     17961     17962     17963     17964     17963     17965     17964     17965
     17966     17967     17966     17968     17967     17968     17969     17970
     17969     17971     17970     17971     17972     17973     17972     17974
     17973     17974     17975     17976     17975     17977     17976     17977
     17978     17979     17978     17980     17979     17980     17981     17982
     17981     17983     17982     17983     17984     17985     17984     17986
     17985     17986     17987     17988     17987     17989     17988     17989
     17990     17991     17990     17992     17991     17992     17993     17994
     17993     17995     17994     17995     17996     17997     17996     17998
     17997     17998     17999     18000     17999     18001     18000     18001
     18002     18003     18002     18004     18003     18004     18005     18006
     18005     18007     18006     18007     18008     18009     18008     18010
     18009     18010     18011     18012     18011     18013     18012     18013
     18014     18015     18014     18016     18015     18016     18017     18018
     18017     18019     18018     18019     18020     18021     18020     18022
     18021     18022     18023     18024     18023     18025     18024     18025
     18026     18027     18026     18028     18027     18028     18029     18030
     18029     18031     18030     18031     18032     18033     18032     18034
     18033     18034     18035     18036     18035     18037     18036     18037
     18038     18039     18038     18040     18039     18040     18041     18042
     18041     18043     18042     18043     18044     18045     18044     18046
     18045     18046     18047     18048     18047     18049     18048     18049
     18050     18051     18050     18052     18051     18052     18053     18054
     18053     18055     18054     18055     18056     18057     18056     18058
     18057     18058     18059     18060     18059     18061     18060     18061
     18062     18063     18062     18064     18063     18064     18065     18066
     18065     18067     18066     18067     18068     18069     18068     18070
     18069     18070     18071     18072     18071     18073     18072     18073
     18074     18075     18074     18076     18075     18076     18077     18078
     18077     18079     18078     18079     18080     18081     18080     18082
     18081     18082     18083     18084     18083     18085     18084     18085
     18086     18087     18086     18088     18087     18088     18089     18090
     18089     18091     18090     18091     18092     18093     18092     18094
     18093     18094     18095     18096     18095     18097     18096     18097
     18098     18099     18098     18100     18099     18100     18101     18102
     18101     18103     18102     18103     18104     18105     18104     18106
     18105     18106     18107     18108     18107     18109     18108     18109
     18110     18111     18110     18112     18111     18112     18113     18114
     18113     18115     18114     18115     18116     18117     18116     18118
     18117     18118     18119     18120     18119     18121     18120     18121
     18122     18123     18122     18124     18123     18124     18125     18126
     18125     18127     18126     18127     18128     18129     18128     18130
     18129     18130     18131     18132     18131     18133     18132     18133
     18134     18135     18134     18136     18135     18136     18137     18138
     18137     18139     18138     18139     18140     18141     18140     18142
     18141     18142     18143     18144     18143     18145     18144     18145
     18146     18147     18146     18148     18147     18148     18149     18150
     18149     18151     18150     18151     18152     18153     18152     18154
     18153     18154     18155     18156     18155     18157     18156     18157
     18158     18159     18158     18160     18159     18160     18161     18162
     18161     18163     18162     18163     18164     18165     18164     18166
     18165     18166     18167     18168     18167     18169     18168     18169
     18170     18171     18170     18172     18171     18172     18173     18174
     18173     18175     18174     18175     18176     18177     18176     18178
     18177     18178     18179     18180     18179     18181     18180     18181
     18182     18183     18182     18184     18183     18184     18185     18186
     18185     18187     18186     18187     18188     18189     18188     18190
     18189     18190     18191     18192     18191     18193     18192     18193
     18194     18195     18194     18196     18195     18196     18197     18198
     18197     18199     18198     18199     18200     18201     18200     18202
     18201     18202     18203     18204     18203     18205     18204     18205
     18206     18207     18206     18208     18207     18208     18209     18210
     18209     18211     18210     18211     18212     18213     18212     18214
     18213     18214     18215     18216     18215     18217     18216     18217
     18218     18219     18218     18220     18219     18220     18221     18222
     18221     18223     18222     18223     18224     18225     18224     18226
     18225     18226     18227     18228     18227     18229     18228     18229
     18230     18231     18230     18232     18231     18232     18233     18234
     18233     18235     18234     18235     18236     18237     18236     18238
     18237     18238     18239     18240     18239     18241     18240     18241
     18242     18243     18242     18244     18243     18244     18245     18246
     18245     18247     18246     18247     18248     18249     18248     18250
     18249     18250     18251     18252     18251     18253     18252     18253
     18254     18255     18254     18256     18255     18256     18257     18258
     18257     18259     18258     18259     18260     18261     18260     18262
     18261     18262     18263     18264     18263     18265     18264     18265
     18266     18267     18266     18268     18267     18268     18269     18270
     18269     18271     18270     18271     18272     18273     18272     18274
     18273     18274     18275     18276     18275     18277     18276     18277
     18278     18279     18278     18280     18279     18280     18281     18282
     18281     18283     18282     18283     18284     18285     18284     18286
     18285     18286     18287     18288     18287     18289     18288     18289
     18290     18291     18290     18292     18291     18292     18293     18294
     18293     18295     18294     18295     18296     18297     18296     18298
     18297     18298     18299     18300     18299     18301     18300     18301
     18302     18303     18302     18304     18303     18304     18305     18306
     18305     18307     18306     18307     18308     18309     18308     18310
     18309     18310     18311     18312     18311     18313     18312     18313
     18314     18315     18314     18316     18315     18316     18317     18318
     18317     18319     18318     18319     18320     18321     18320     18322
     18321     18322     18323     18324     18323     18325     18324     18325
     18326     18327     18326     18328     18327     18328     18329     18330
     18329     18331     18330     18331     18332     18333     18332     18334
     18333     18334     18335     18336     18335     18337     18336     18337
     18338     18339     18338     18340     18339     18340     18341     18342
     18341     18343     18342     18343     18344     18345     18344     18346
     18345     18346     18347     18348     18347     18349     18348     18349
     18350     18351     18350     18352     18351     18352     18353     18354
     18353     18355     18354     18355     18356     18357     18356     18358
     18357     18358     18359     18360     18359     18361     18360     18361
     18362     18363     18362     18364     18363     18364     18365     18366
     18365     18367     18366     18367     18368     18369     18368     18370
     18369     18370     18371     18372     18371     18373     18372     18373
     18374     18375     18374     18376     18375     18376     18377     18378
     18377     18379     18378     18379     18380     18381     18380     18382
     18381     18382     18383     18384     18383     18385     18384     18385
     18386     18387     18386     18388     18387     18388     18389     18390
     18389     18391     18390     18391     18392     18393     18392     18394
     18393     18394     18395     18396     18395     18397     18396     18397
     18398     18399     18398     18400     18399     18400     18401     18402
     18401     18403     18402     18403     18404     18405     18404     18406
     18405     18406     18407     18408     18407     18409     18408     18409
     18410     18411     18410     18412     18411     18412     18413     18414
     18413     18415     18414     18415     18416     18417     18416     18418
     18417     18418     18419     18420     18419     18421     18420     18421
     18422     18423     18422     18424     18423     18424     18425     18426
     18425     18427     18426     18427     18428     18429     18428     18430
     18429     18430     18431     18432     18431     18433     18432     18433
     18434     18435     18434     18436     18435     18436     18437     18438
     18437     18439     18438     18439     18440     18441     18440     18442
     18441     18442     18443     18444     18443     18445     18444     18445
     18446     18447     18446     18448     18447     18448     18449     18450
     18449     18451     18450     18451     18452     18453     18452     18454
     18453     18454     18455     18456     18455     18457     18456     18457
     18458     18459     18458     18460     18459     18460     18461     18462
     18461     18463     18462     18463     18464     18465     18464     18466
     18465     18466     18467     18468     18467     18469     18468     18469
     18470     18471     18470     18472     18471     18472     18473     18474
     18473     18475     18474     18475     18476     18477     18476     18478
     18477     18478     18479     18480     18479     18481     18480     18481
     18482     18483     18482     18484     18483     18484     18485     18486
     18485     18487     18486     18487     18488     18489     18488     18490
     18489     18490     18491     18492     18491     18493     18492     18493
     18494     18495     18494     18496     18495     18496     18497     18498
     18497     18499     18498     18499     18500     18501     18500     18502
     18501     18502     18503     18504     18503     18505     18504     18505
     18506     18507     18506     18508     18507     18508     18509     18510
     18509     18511     18510     18511     18512     18513     18512     18514
     18513     18514     18515     18516     18515     18517     18516     18517
     18518     18519     18518     18520     18519     18520     18521     18522
     18521     18523     18522     18523     18524     18525     18524     18526
     18525     18526     18527     18528     18527     18529     18528     18529
     18530     18531     18530     18532     18531     18532     18533     18534
     18533     18535     18534     18535     18536     18537     18536     18538
     18537     18538     18539     18540     18539     18541     18540     18541
     18542     18543     18542     18544     18543     18544     18545     18546
     18545     18547     18546     18547     18548     18549     18548     18550
     18549     18550     18551     18552     18551     18553     18552     18553
     18554     18555     18554     18556     18555     18556     18557     18558
     18557     18559     18558     18559     18560     18561     18560     18562
     18561     18562     18563     18564     18563     18565     18564     18565
     18566     18567     18566     18568     18567     18568     18569     18570
     18569     18571     18570     18571     18572     18573     18572     18574
     18573     18574     18575     18576     18575     18577     18576     18577
     18578     18579     18578     18580     18579     18580     18581     18582
     18581     18583     18582     18583     18584     18585     18584     18586
     18585     18586     18587     18588     18587     18589     18588     18589
     18590     18591     18590     18592     18591     18592     18593     18594
     18593     18595     18594     18595     18596     18597     18596     18598
     18597     18598     18599     18600     18599     18601     18600     18601
     18602     18603     18602     18604     18603     18604     18605     18606
     18605     18607     18606     18607     18608     18609     18608     18610
     18609     18610     18611     18612     18611     18613     18612     18613
     18614     18615     18614     18616     18615     18616     18617     18618
     18617     18619     18618     18619     18620     18621     18620     18622
     18621     18622     18623     18624     18623     18625     18624     18625
     18626     18627     18626     18628     18627     18628     18629     18630
     18629     18631     18630     18631     18632     18633     18632     18634
     18633     18634     18635     18636     18635     18637     18636     18637
     18638     18639     18638     18640     18639     18640     18641     18642
     18641     18643     18642     18643     18644     18645     18644     18646
     18645     18646     18647     18648     18647     18649     18648     18649
     18650     18651     18650     18652     18651     18652     18653     18654
     18653     18655     18654     18655     18656     18657     18656     18658
     18657     18658     18659     18660     18659     18661     18660     18661
     18662     18663     18662     18664     18663     18664     18665     18666
     18665     18667     18666     18667     18668     18669     18668     18670
     18669     18670     18671     18672     18671     18673     18672     18673
     18674     18675     18674     18676     18675     18676     18677     18678
     18677     18679     18678     18679     18680     18681     18680     18682
     18681     18682     18683     18684     18683     18685     18684     18685
     18686     18687     18686     18688     18687     18688     18689     18690
     18689     18691     18690     18691     18692     18693     18692     18694
     18693     18694     18695     18696     18695     18697     18696     18697
     18698     18699     18698     18700     18699     18700     18701     18702
     18701     18703     18702     18703     18704     18705     18704     18706
     18705     18706     18707     18708     18707     18709     18708     18709
     18710     18711     18710     18712     18711     18712     18713     18714
     18713     18715     18714     18715     18716     18717     18716     18718
     18717     18718     18719     18720     18719     18721     18720     18721
     18722     18723     18722     18724     18723     18724     18725     18726
     18725     18727     18726     18727     18728     18729     18728     18730
     18729     18730     18731     18732     18731     18733     18732     18733
     18734     18735     18734     18736     18735     18736     18737     18738
     18737     18739     18738     18739     18740     18741     18740     18742
     18741     18742     18743     18744     18743     18745     18744     18745
     18746     18747     18746     18748     18747     18748     18749     18750
     18749     18751     18750     18751     18752     18753     18752     18754
     18753     18754     18755     18756     18755     18757     18756     18757
     18758     18759     18758     18760     18759     18760     18761     18762
     18761     18763     18762     18763     18764     18765     18764     18766
     18765     18766     18767     18768     18767     18769     18768     18769
     18770     18771     18770     18772     18771     18772     18773     18774
     18773     18775     18774     18775     18776     18777     18776     18778
     18777     18778     18779     18780     18779     18781     18780     18781
     18782     18783     18782     18784     18783     18784     18785     18786
     18785     18787     18786     18787     18788     18789     18788     18790
     18789     18790     18791     18792     18791     18793     18792     18793
     18794     18795     18794     18796     18795     18796     18797     18798
     18797     18799     18798     18799     18800     18801     18800     18802
     18801     18802     18803     18804     18803     18805     18804     18805
     18806     18807     18806     18808     18807     18808     18809     18810
     18809     18811     18810     18811     18812     18813     18812     18814
     18813     18814     18815     18816     18815     18817     18816     18817
     18818     18819     18818     18820     18819     18820     18821     18822
     18821     18823     18822     18823     18824     18825     18824     18826
     18825     18826     18827     18828     18827     18829     18828     18829
     18830     18831     18830     18832     18831     18832     18833     18834
     18833     18835     18834     18835     18836     18837     18836     18838
     18837     18838     18839     18840     18839     18841     18840     18841
     18842     18843     18842     18844     18843     18844     18845     18846
     18845     18847     18846     18847     18848     18849     18848     18850
     18849     18850     18851     18852     18851     18853     18852     18853
     18854     18855     18854     18856     18855     18856     18857     18858
     18857     18859     18858     18859     18860     18861     18860     18862
     18861     18862     18863     18864     18863     18865     18864     18865
     18866     18867     18866     18868     18867     18868     18869     18870
     18869     18871     18870     18871     18872     18873     18872     18874
     18873     18874     18875     18876     18875     18877     18876     18877
     18878     18879     18878     18880     18879     18880     18881     18882
     18881     18883     18882     18883     18884     18885     18884     18886
     18885     18886     18887     18888     18887     18889     18888     18889
     18890     18891     18890     18892     18891     18892     18893     18894
     18893     18895     18894     18895     18896     18897     18896     18898
     18897     18898     18899     18900     18899     18901     18900     18901
     18902     18903     18902     18904     18903     18904     18905     18906
     18905     18907     18906     18907     18908     18909     18908     18910
     18909     18910     18911     18912     18911     18913     18912     18913
     18914     18915     18914     18916     18915     18916     18917     18918
     18917     18919     18918     18919     18920     18921     18920     18922
     18921     18922     18923     18924     18923     18925     18924     18925
     18926     18927     18926     18928     18927     18928     18929     18930
     18929     18931     18930     18931     18932     18933     18932     18934
     18933     18934     18935     18936     18935     18937     18936     18937
     18938     18939     18938     18940     18939     18940     18941     18942
     18941     18943     18942     18943     18944     18945     18944     18946
     18945     18946     18947     18948     18947     18949     18948     18949
     18950     18951     18950     18952     18951     18952     18953     18954
     18953     18955     18954     18955     18956     18957     18956     18958
     18957     18958     18959     18960     18959     18961     18960     18961
     18962     18963     18962     18964     18963     18964     18965     18966
     18965     18967     18966     18967     18968     18969     18968     18970
     18969     18970     18971     18972     18971     18973     18972     18973
     18974     18975     18974     18976     18975     18976     18977     18978
     18977     18979     18978     18979     18980     18981     18980     18982
     18981     18982     18983     18984     18983     18985     18984     18985
     18986     18987     18986     18988     18987     18988     18989     18990
     18989     18991     18990     18991     18992     18993     18992     18994
     18993     18994     18995     18996     18995     18997     18996     18997
     18998     18999     18998     19000     18999     19000     19001     19002
     19001     19003     19002     19003     19004     19005     19004     19006
     19005     19006     19007     19008     19007     19009     19008     19009
     19010     19011     19010     19012     19011     19012     19013     19014
     19013     19015     19014     19015     19016     19017     19016     19018
     19017     19018     19019     19020     19019     19021     19020     19021
     19022     19023     19022     19024     19023     19024     19025     19026
     19025     19027     19026     19027     19028     19029     19028     19030
     19029     19030     19031     19032     19031     19033     19032     19033
     19034     19035     19034     19036     19035     19036     19037     19038
     19037     19039     19038     19039     19040     19041     19040     19042
     19041     19042     19043     19044     19043     19045     19044     19045
     19046     19047     19046     19048     19047     19048     19049     19050
     19049     19051     19050     19051     19052     19053     19052     19054
     19053     19054     19055     19056     19055     19057     19056     19057
     19058     19059     19058     19060     19059     19060     19061     19062
     19061     19063     19062     19063     19064     19065     19064     19066
     19065     19066     19067     19068     19067     19069     19068     19069
     19070     19071     19070     19072     19071     19072     19073     19074
     19073     19075     19074     19075     19076     19077     19076     19078
     19077     19078     19079     19080     19079     19081     19080     19081
     19082     19083     19082     19084     19083     19084     19085     19086
     19085     19087     19086     19087     19088     19089     19088     19090
     19089     19090     19091     19092     19091     19093     19092     19093
     19094     19095     19094     19096     19095     19096     19097     19098
     19097     19099     19098     19099     19100     19101     19100     19102
     19101     19102     19103     19104     19103     19105     19104     19105
     19106     19107     19106     19108     19107     19108     19109     19110
     19109     19111     19110     19111     19112     19113     19112     19114
     19113     19114     19115     19116     19115     19117     19116     19117
     19118     19119     19118     19120     19119     19120     19121     19122
     19121     19123     19122     19123     19124     19125     19124     19126
     19125     19126     19127     19128     19127     19129     19128     19129
     19130     19131     19130     19132     19131     19132     19133     19134
     19133     19135     19134     19135     19136     19137     19136     19138
     19137     19138     19139     19140     19139     19141     19140     19141
     19142     19143     19142     19144     19143     19144     19145     19146
     19145     19147     19146     19147     19148     19149     19148     19150
     19149     19150     19151     19152     19151     19153     19152     19153
     19154     19155     19154     19156     19155     19156     19157     19158
     19157     19159     19158     19159     19160     19161     19160     19162
     19161     19162     19163     19164     19163     19165     19164     19165
     19166     19167     19166     19168     19167     19168     19169     19170
     19169     19171     19170     19171     19172     19173     19172     19174
     19173     19174     19175     19176     19175     19177     19176     19177
     19178     19179     19178     19180     19179     19180     19181     19182
     19181     19183     19182     19183     19184     19185     19184     19186
     19185     19186     19187     19188     19187     19189     19188     19189
     19190     19191     19190     19192     19191     19192     19193     19194
     19193     19195     19194     19195     19196     19197     19196     19198
     19197     19198     19199     19200     19199     19201     19200     19201
     19202     19203     19202     19204     19203     19204     19205     19206
     19205     19207     19206     19207     19208     19209     19208     19210
     19209     19210     19211     19212     19211     19213     19212     19213
     19214     19215     19214     19216     19215     19216     19217     19218
     19217     19219     19218     19219     19220     19221     19220     19222
     19221     19222     19223     19224     19223     19225     19224     19225
     19226     19227     19226     19228     19227     19228     19229     19230
     19229     19231     19230     19231     19232     19233     19232     19234
     19233     19234     19235     19236     19235     19237     19236     19237
     19238     19239     19238     19240     19239     19240     19241     19242
     19241     19243     19242     19243     19244     19245     19244     19246
     19245     19246     19247     19248     19247     19249     19248     19249
     19250     19251     19250     19252     19251     19252     19253     19254
     19253     19255     19254     19255     19256     19257     19256     19258
     19257     19258     19259     19260     19259     19261     19260     19261
     19262     19263     19262     19264     19263     19264     19265     19266
     19265     19267     19266     19267     19268     19269     19268     19270
     19269     19270     19271     19272     19271     19273     19272     19273
     19274     19275     19274     19276     19275     19276     19277     19278
     19277     19279     19278     19279     19280     19281     19280     19282
     19281     19282     19283     19284     19283     19285     19284     19285
     19286     19287     19286     19288     19287     19288     19289     19290
     19289     19291     19290     19291     19292     19293     19292     19294
     19293     19294     19295     19296     19295     19297     19296     19297
     19298     19299     19298     19300     19299     19300     19301     19302
     19301     19303     19302     19303     19304     19305     19304     19306
     19305     19306     19307     19308     19307     19309     19308     19309
     19310     19311     19310     19312     19311     19312     19313     19314
     19313     19315     19314     19315     19316     19317     19316     19318
     19317     19318     19319     19320     19319     19321     19320     19321
     19322     19323     19322     19324     19323     19324     19325     19326
     19325     19327     19326     19327     19328     19329     19328     19330
     19329     19330     19331     19332     19331     19333     19332     19333
     19334     19335     19334     19336     19335     19336     19337     19338
     19337     19339     19338     19339     19340     19341     19340     19342
     19341     19342     19343     19344     19343     19345     19344     19345
     19346     19347     19346     19348     19347     19348     19349     19350
     19349     19351     19350     19351     19352     19353     19352     19354
     19353     19354     19355     19356     19355     19357     19356     19357
     19358     19359     19358     19360     19359     19360     19361     19362
     19361     19363     19362     19363     19364     19365     19364     19366
     19365     19366     19367     19368     19367     19369     19368     19369
     19370     19371     19370     19372     19371     19372     19373     19374
     19373     19375     19374     19375     19376     19377     19376     19378
     19377     19378     19379     19380     19379     19381     19380     19381
     19382     19383     19382     19384     19383     19384     19385     19386
     19385     19387     19386     19387     19388     19389     19388     19390
     19389     19390     19391     19392     19391     19393     19392     19393
     19394     19395     19394     19396     19395     19396     19397     19398
     19397     19399     19398     19399     19400     19401     19400     19402
     19401     19402     19403     19404     19403     19405     19404     19405
     19406     19407     19406     19408     19407     19408     19409     19410
     19409     19411     19410     19411     19412     19413     19412     19414
     19413     19414     19415     19416     19415     19417     19416     19417
     19418     19419     19418     19420     19419     19420     19421     19422
     19421     19423     19422     19423     19424     19425     19424     19426
     19425     19426     19427     19428     19427     19429     19428     19429
     19430     19431     19430     19432     19431     19432     19433     19434
     19433     19435     19434     19435     19436     19437     19436     19438
     19437     19438     19439     19440     19439     19441     19440     19441
     19442     19443     19442     19444     19443     19444     19445     19446
     19445     19447     19446     19447     19448     19449     19448     19450
     19449     19450     19451     19452     19451     19453     19452     19453
     19454     19455     19454     19456     19455     19456     19457     19458
     19457     19459     19458     19459     19460     19461     19460     19462
     19461     19462     19463     19464     19463     19465     19464     19465
     19466     19467     19466     19468     19467     19468     19469     19470
     19469     19471     19470     19471     19472     19473     19472     19474
     19473     19474     19475     19476     19475     19477     19476     19477
     19478     19479     19478     19480     19479     19480     19481     19482
     19481     19483     19482     19483     19484     19485     19484     19486
     19485     19486     19487     19488     19487     19489     19488     19489
     19490     19491     19490     19492     19491     19492     19493     19494
     19493     19495     19494     19495     19496     19497     19496     19498
     19497     19498     19499     19500     19499     19501     19500     19501
     19502     19503     19502     19504     19503     19504     19505     19506
     19505     19507     19506     19507     19508     19509     19508     19510
     19509     19510     19511     19512     19511     19513     19512     19513
     19514     19515     19514     19516     19515     19516     19517     19518
     19517     19519     19518     19519     19520     19521     19520     19522
     19521     19522     19523     19524     19523     19525     19524     19525
     19526     19527     19526     19528     19527     19528     19529     19530
     19529     19531     19530     19531     19532     19533     19532     19534
     19533     19534     19535     19536     19535     19537     19536     19537
     19538     19539     19538     19540     19539     19540     19541     19542
     19541     19543     19542     19543     19544     19545     19544     19546
     19545     19546     19547     19548     19547     19549     19548     19549
     19550     19551     19550     19552     19551     19552     19553     19554
     19553     19555     19554     19555     19556     19557     19556     19558
     19557     19558     19559     19560     19559     19561     19560     19561
     19562     19563     19562     19564     19563     19564     19565     19566
     19565     19567     19566     19567     19568     19569     19568     19570
     19569     19570     19571     19572     19571     19573     19572     19573
     19574     19575     19574     19576     19575     19576     19577     19578
     19577     19579     19578     19579     19580     19581     19580     19582
     19581     19582     19583     19584     19583     19585     19584     19585
     19586     19587     19586     19588     19587     19588     19589     19590
     19589     19591     19590     19591     19592     19593     19592     19594
     19593     19594     19595     19596     19595     19597     19596     19597
     19598     19599     19598     19600     19599     19600     19601     19602
     19601     19603     19602     19603     19604     19605     19604     19606
     19605     19606     19607     19608     19607     19609     19608     19609
     19610     19611     19610     19612     19611     19612     19613     19614
     19613     19615     19614     19615     19616     19617     19616     19618
     19617     19618     19619     19620     19619     19621     19620     19621
     19622     19623     19622     19624     19623     19624     19625     19626
     19625     19627     19626     19627     19628     19629     19628     19630
     19629     19630     19631     19632     19631     19633     19632     19633
     19634     19635     19634     19636     19635     19636     19637     19638
     19637     19639     19638     19639     19640     19641     19640     19642
     19641     19642     19643     19644     19643     19645     19644     19645
     19646     19647     19646     19648     19647     19648     19649     19650
     19649     19651     19650     19651     19652     19653     19652     19654
     19653     19654     19655     19656     19655     19657     19656     19657
     19658     19659     19658     19660     19659     19660     19661     19662
     19661     19663     19662     19663     19664     19665     19664     19666
     19665     19666     19667     19668     19667     19669     19668     19669
     19670     19671     19670     19672     19671     19672     19673     19674
     19673     19675     19674     19675     19676     19677     19676     19678
     19677     19678     19679     19680     19679     19681     19680     19681
     19682     19683     19682     19684     19683     19684     19685     19686
     19685     19687     19686     19687     19688     19689     19688     19690
     19689     19690     19691     19692     19691     19693     19692     19693
     19694     19695     19694     19696     19695     19696     19697     19698
     19697     19699     19698     19699     19700     19701     19700     19702
     19701     19702     19703     19704     19703     19705     19704     19705
     19706     19707     19706     19708     19707     19708     19709     19710
     19709     19711     19710     19711     19712     19713     19712     19714
     19713     19714     19715     19716     19715     19717     19716     19717
     19718     19719     19718     19720     19719     19720     19721     19722
     19721     19723     19722     19723     19724     19725     19724     19726
     19725     19726     19727     19728     19727     19729     19728     19729
     19730     19731     19730     19732     19731     19732     19733     19734
     19733     19735     19734     19735     19736     19737     19736     19738
     19737     19738     19739     19740     19739     19741     19740     19741
     19742     19743     19742     19744     19743     19744     19745     19746
     19745     19747     19746     19747     19748     19749     19748     19750
     19749     19750     19751     19752     19751     19753     19752     19753
     19754     19755     19754     19756     19755     19756     19757     19758
     19757     19759     19758     19759     19760     19761     19760     19762
     19761     19762     19763     19764     19763     19765     19764     19765
     19766     19767     19766     19768     19767     19768     19769     19770
     19769     19771     19770     19771     19772     19773     19772     19774
     19773     19774     19775     19776     19775     19777     19776     19777
     19778     19779     19778     19780     19779     19780     19781     19782
     19781     19783     19782     19783     19784     19785     19784     19786
     19785     19786     19787     19788     19787     19789     19788     19789
     19790     19791     19790     19792     19791     19792     19793     19794
     19793     19795     19794     19795     19796     19797     19796     19798
     19797     19798     19799     19800     19799     19801     19800     19801
     19802     19803     19802     19804     19803     19804     19805     19806
     19805     19807     19806     19807     19808     19809     19808     19810
     19809     19810     19811     19812     19811     19813     19812     19813
     19814     19815     19814     19816     19815     19816     19817     19818
     19817     19819     19818     19819     19820     19821     19820     19822
     19821     19822     19823     19824     19823     19825     19824     19825
     19826     19827     19826     19828     19827     19828     19829     19830
     19829     19831     19830     19831     19832     19833     19832     19834
     19833     19834     19835     19836     19835     19837     19836     19837
     19838     19839     19838     19840     19839     19840     19841     19842
     19841     19843     19842     19843     19844     19845     19844     19846
     19845     19846     19847     19848     19847     19849     19848     19849
     19850     19851     19850     19852     19851     19852     19853     19854
     19853     19855     19854     19855     19856     19857     19856     19858
     19857     19858     19859     19860     19859     19861     19860     19861
     19862     19863     19862     19864     19863     19864     19865     19866
     19865     19867     19866     19867     19868     19869     19868     19870
     19869     19870     19871     19872     19871     19873     19872     19873
     19874     19875     19874     19876     19875     19876     19877     19878
     19877     19879     19878     19879     19880     19881     19880     19882
     19881     19882     19883     19884     19883     19885     19884     19885
     19886     19887     19886     19888     19887     19888     19889     19890
     19889     19891     19890     19891     19892     19893     19892     19894
     19893     19894     19895     19896     19895     19897     19896     19897
     19898     19899     19898     19900     19899     19900     19901     19902
     19901     19903     19902     19903     19904     19905     19904     19906
     19905     19906     19907     19908     19907     19909     19908     19909
     19910     19911     19910     19912     19911     19912     19913     19914
     19913     19915     19914     19915     19916     19917     19916     19918
     19917     19918     19919     19920     19919     19921     19920     19921
     19922     19923     19922     19924     19923     19924     19925     19926
     19925     19927     19926     19927     19928     19929     19928     19930
     19929     19930     19931     19932     19931     19933     19932     19933
     19934     19935     19934     19936     19935     19936     19937     19938
     19937     19939     19938     19939     19940     19941     19940     19942
     19941     19942     19943     19944     19943     19945     19944     19945
     19946     19947     19946     19948     19947     19948     19949     19950
     19949     19951     19950     19951     19952     19953     19952     19954
     19953     19954     19955     19956     19955     19957     19956     19957
     19958     19959     19958     19960     19959     19960     19961     19962
     19961     19963     19962     19963     19964     19965     19964     19966
     19965     19966     19967     19968     19967     19969     19968     19969
     19970     19971     19970     19972     19971     19972     19973     19974
     19973     19975     19974     19975     19976     19977     19976     19978
     19977     19978     19979     19980     19979     19981     19980     19981
     19982     19983     19982     19984     19983     19984     19985     19986
     19985     19987     19986     19987     19988     19989     19988     19990
     19989     19990     19991     19992     19991     19993     19992     19993
     19994     19995     19994     19996     19995     19996     19997     19998
     19997     19999     19998     19999     20000     20001     20000     20002
     20001     20002     20003     20004     20003     20005     20004     20005
     20006     20007     20006     20008     20007     20008     20009     20010
     20009     20011     20010     20011     20012     20013     20012     20014
     20013     20014     20015     20016     20015     20017     20016     20017
     20018     20019     20018     20020     20019     20020     20021     20022
     20021     20023     20022     20023     20024     20025     20024     20026
     20025     20026     20027     20028     20027     20029     20028     20029
     20030     20031     20030     20032     20031     20032     20033     20034
     20033     20035     20034     20035     20036     20037     20036     20038
     20037     20038     20039     20040     20039     20041     20040     20041
     20042     20043     20042     20044     20043     20044     20045     20046
     20045     20047     20046     20047     20048     20049     20048     20050
     20049     20050     20051     20052     20051     20053     20052     20053
     20054     20055     20054     20056     20055     20056     20057     20058
     20057     20059     20058     20059     20060     20061     20060     20062
     20061     20062     20063     20064     20063     20065     20064     20065
     20066     20067     20066     20068     20067     20068     20069     20070
     20069     20071     20070     20071     20072     20073     20072     20074
     20073     20074     20075     20076     20075     20077     20076     20077
     20078     20079     20078     20080     20079     20080     20081     20082
     20081     20083     20082     20083     20084     20085     20084     20086
     20085     20086     20087     20088     20087     20089     20088     20089
     20090     20091     20090     20092     20091     20092     20093     20094
     20093     20095     20094     20095     20096     20097     20096     20098
     20097     20098     20099     20100     20099     20101     20100     20101
     20102     20103     20102     20104     20103     20104     20105     20106
     20105     20107     20106     20107     20108     20109     20108     20110
     20109     20110     20111     20112     20111     20113     20112     20113
     20114     20115     20114     20116     20115     20116     20117     20118
     20117     20119     20118     20119     20120     20121     20120     20122
     20121     20122     20123     20124     20123     20125     20124     20125
     20126     20127     20126     20128     20127     20128     20129     20130
     20129     20131     20130     20131     20132     20133     20132     20134
     20133     20134     20135     20136     20135     20137     20136     20137
     20138     20139     20138     20140     20139     20140     20141     20142
     20141     20143     20142     20143     20144     20145     20144     20146
     20145     20146     20147     20148     20147     20149     20148     20149
     20150     20151     20150     20152     20151     20152     20153     20154
     20153     20155     20154     20155     20156     20157     20156     20158
     20157     20158     20159     20160     20159     20161     20160     20161
     20162     20163     20162     20164     20163     20164     20165     20166
     20165     20167     20166     20167     20168     20169     20168     20170
     20169     20170     20171     20172     20171     20173     20172     20173
     20174     20175     20174     20176     20175     20176     20177     20178
     20177     20179     20178     20179     20180     20181     20180     20182
     20181     20182     20183     20184     20183     20185     20184     20185
     20186     20187     20186     20188     20187     20188     20189     20190
     20189     20191     20190     20191     20192     20193     20192     20194
     20193     20194     20195     20196     20195     20197     20196     20197
     20198     20199     20198     20200     20199     20200     20201     20202
     20201     20203     20202     20203     20204     20205     20204     20206
     20205     20206     20207     20208     20207     20209     20208     20209
     20210     20211     20210     20212     20211     20212     20213     20214
     20213     20215     20214     20215     20216     20217     20216     20218
     20217     20218     20219     20220     20219     20221     20220     20221
     20222     20223     20222     20224     20223     20224     20225     20226
     20225     20227     20226     20227     20228     20229     20228     20230
     20229     20230     20231     20232     20231     20233     20232     20233
     20234     20235     20234     20236     20235     20236     20237     20238
     20237     20239     20238     20239     20240     20241     20240     20242
     20241     20242     20243     20244     20243     20245     20244     20245
     20246     20247     20246     20248     20247     20248     20249     20250
     20249     20251     20250     20251     20252     20253     20252     20254
     20253     20254     20255     20256     20255     20257     20256     20257
     20258     20259     20258     20260     20259     20260     20261     20262
     20261     20263     20262     20263     20264     20265     20264     20266
     20265     20266     20267     20268     20267     20269     20268     20269
     20270     20271     20270     20272     20271     20272     20273     20274
     20273     20275     20274     20275     20276     20277     20276     20278
     20277     20278     20279     20280     20279     20281     20280     20281
     20282     20283     20282     20284     20283     20284     20285     20286
     20285     20287     20286     20287     20288     20289     20288     20290
     20289     20290     20291     20292     20291     20293     20292     20293
     20294     20295     20294     20296     20295     20296     20297     20298
     20297     20299     20298     20299     20300     20301     20300     20302
     20301     20302     20303     20304     20303     20305     20304     20305
     20306     20307     20306     20308     20307     20308     20309     20310
     20309     20311     20310     20311     20312     20313     20312     20314
     20313     20314     20315     20316     20315     20317     20316     20317
     20318     20319     20318     20320     20319     20320     20321     20322
     20321     20323     20322     20323     20324     20325     20324     20326
     20325     20326     20327     20328     20327     20329     20328     20329
     20330     20331     20330     20332     20331     20332     20333     20334
     20333     20335     20334     20335     20336     20337     20336     20338
     20337     20338     20339     20340     20339     20341     20340     20341
     20342     20343     20342     20344     20343     20344     20345     20346
     20345     20347     20346     20347     20348     20349     20348     20350
     20349     20350     20351     20352     20351     20353     20352     20353
     20354     20355     20354     20356     20355     20356     20357     20358
     20357     20359     20358     20359     20360     20361     20360     20362
     20361     20362     20363     20364     20363     20365     20364     20365
     20366     20367     20366     20368     20367     20368     20369     20370
     20369     20371     20370     20371     20372     20373     20372     20374
     20373     20374     20375     20376     20375     20377     20376     20377
     20378     20379     20378     20380     20379     20380     20381     20382
     20381     20383     20382     20383     20384     20385     20384     20386
     20385     20386     20387     20388     20387     20389     20388     20389
     20390     20391     20390     20392     20391     20392     20393     20394
     20393     20395     20394     20395     20396     20397     20396     20398
     20397     20398     20399     20400     20399     20401     20400     20401
     20402     20403     20402     20404     20403     20404     20405     20406
     20405     20407     20406     20407     20408     20409     20408     20410
     20409     20410     20411     20412     20411     20413     20412     20413
     20414     20415     20414     20416     20415     20416     20417     20418
     20417     20419     20418     20419     20420     20421     20420     20422
     20421     20422     20423     20424     20423     20425     20424     20425
     20426     20427     20426     20428     20427     20428     20429     20430
     20429     20431     20430     20431     20432     20433     20432     20434
     20433     20434     20435     20436     20435     20437     20436     20437
     20438     20439     20438     20440     20439     20440     20441     20442
     20441     20443     20442     20443     20444     20445     20444     20446
     20445     20446     20447     20448     20447     20449     20448     20449
     20450     20451     20450     20452     20451     20452     20453     20454
     20453     20455     20454     20455     20456     20457     20456     20458
     20457     20458     20459     20460     20459     20461     20460     20461
     20462     20463     20462     20464     20463     20464     20465     20466
     20465     20467     20466     20467     20468     20469     20468     20470
     20469     20470     20471     20472     20471     20473     20472     20473
     20474     20475     20474     20476     20475     20476     20477     20478
     20477     20479     20478     20479     20480     20481     20480     20482
     20481     20482     20483     20484     20483     20485     20484     20485
     20486     20487     20486     20488     20487     20488     20489     20490
     20489     20491     20490     20491     20492     20493     20492     20494
     20493     20494     20495     20496     20495     20497     20496     20497
     20498     20499     20498     20500     20499     20500     20501     20502
     20501     20503     20502     20503     20504     20505     20504     20506
     20505     20506     20507     20508     20507     20509     20508     20509
     20510     20511     20510     20512     20511     20512     20513     20514
     20513     20515     20514     20515     20516     20517     20516     20518
     20517     20518     20519     20520     20519     20521     20520     20521
     20522     20523     20522     20524     20523     20524     20525     20526
     20525     20527     20526     20527     20528     20529     20528     20530
     20529     20530     20531     20532     20531     20533     20532     20533
     20534     20535     20534     20536     20535     20536     20537     20538
     20537     20539     20538     20539     20540     20541     20540     20542
     20541     20542     20543     20544     20543     20545     20544     20545
     20546     20547     20546     20548     20547     20548     20549     20550
     20549     20551     20550     20551     20552     20553     20552     20554
     20553     20554     20555     20556     20555     20557     20556     20557
     20558     20559     20558     20560     20559     20560     20561     20562
     20561     20563     20562     20563     20564     20565     20564     20566
     20565     20566     20567     20568     20567     20569     20568     20569
     20570     20571     20570     20572     20571     20572     20573     20574
     20573     20575     20574     20575     20576     20577     20576     20578
     20577     20578     20579     20580     20579     20581     20580     20581
     20582     20583     20582     20584     20583     20584     20585     20586
     20585     20587     20586     20587     20588     20589     20588     20590
     20589     20590     20591     20592     20591     20593     20592     20593
     20594     20595     20594     20596     20595     20596     20597     20598
     20597     20599     20598     20599     20600     20601     20600     20602
     20601     20602     20603     20604     20603     20605     20604     20605
     20606     20607     20606     20608     20607     20608     20609     20610
     20609     20611     20610     20611     20612     20613     20612     20614
     20613     20614     20615     20616     20615     20617     20616     20617
     20618     20619     20618     20620     20619     20620     20621     20622
     20621     20623     20622     20623     20624     20625     20624     20626
     20625     20626     20627     20628     20627     20629     20628     20629
     20630     20631     20630     20632     20631     20632     20633     20634
     20633     20635     20634     20635     20636     20637     20636     20638
     20637     20638     20639     20640     20639     20641     20640     20641
     20642     20643     20642     20644     20643     20644     20645     20646
     20645     20647     20646     20647     20648     20649     20648     20650
     20649     20650     20651     20652     20651     20653     20652     20653
     20654     20655     20654     20656     20655     20656     20657     20658
     20657     20659     20658     20659     20660     20661     20660     20662
     20661     20662     20663     20664     20663     20665     20664     20665
     20666     20667     20666     20668     20667     20668     20669     20670
     20669     20671     20670     20671     20672     20673     20672     20674
     20673     20674     20675     20676     20675     20677     20676     20677
     20678     20679     20678     20680     20679     20680     20681     20682
     20681     20683     20682     20683     20684     20685     20684     20686
     20685     20686     20687     20688     20687     20689     20688     20689
     20690     20691     20690     20692     20691     20692     20693     20694
     20693     20695     20694     20695     20696     20697     20696     20698
     20697     20698     20699     20700     20699     20701     20700     20701
     20702     20703     20702     20704     20703     20704     20705     20706
     20705     20707     20706     20707     20708     20709     20708     20710
     20709     20710     20711     20712     20711     20713     20712     20713
     20714     20715     20714     20716     20715     20716     20717     20718
     20717     20719     20718     20719     20720     20721     20720     20722
     20721     20722     20723     20724     20723     20725     20724     20725
     20726     20727     20726     20728     20727     20728     20729     20730
     20729     20731     20730     20731     20732     20733     20732     20734
     20733     20734     20735     20736     20735     20737     20736     20737
     20738     20739     20738     20740     20739     20740     20741     20742
     20741     20743     20742     20743     20744     20745     20744     20746
     20745     20746     20747     20748     20747     20749     20748     20749
     20750     20751     20750     20752     20751     20752     20753     20754
     20753     20755     20754     20755     20756     20757     20756     20758
     20757     20758     20759     20760     20759     20761     20760     20761
     20762     20763     20762     20764     20763     20764     20765     20766
     20765     20767     20766     20767     20768     20769     20768     20770
     20769     20770     20771     20772     20771     20773     20772     20773
     20774     20775     20774     20776     20775     20776     20777     20778
     20777     20779     20778     20779     20780     20781     20780     20782
     20781     20782     20783     20784     20783     20785     20784     20785
     20786     20787     20786     20788     20787     20788     20789     20790
     20789     20791     20790     20791     20792     20793     20792     20794
     20793     20794     20795     20796     20795     20797     20796     20797
     20798     20799     20798     20800     20799     20800     20801     20802
     20801     20803     20802     20803     20804     20805     20804     20806
     20805     20806     20807     20808     20807     20809     20808     20809
     20810     20811     20810     20812     20811     20812     20813     20814
     20813     20815     20814     20815     20816     20817     20816     20818
     20817     20818     20819     20820     20819     20821     20820     20821
     20822     20823     20822     20824     20823     20824     20825     20826
     20825     20827     20826     20827     20828     20829     20828     20830
     20829     20830     20831     20832     20831     20833     20832     20833
     20834     20835     20834     20836     20835     20836     20837     20838
     20837     20839     20838     20839     20840     20841     20840     20842
     20841     20842     20843     20844     20843     20845     20844     20845
     20846     20847     20846     20848     20847     20848     20849     20850
     20849     20851     20850     20851     20852     20853     20852     20854
     20853     20854     20855     20856     20855     20857     20856     20857
     20858     20859     20858     20860     20859     20860     20861     20862
     20861     20863     20862     20863     20864     20865     20864     20866
     20865     20866     20867     20868     20867     20869     20868     20869
     20870     20871     20870     20872     20871     20872     20873     20874
     20873     20875     20874     20875     20876     20877     20876     20878
     20877     20878     20879     20880     20879     20881     20880     20881
     20882     20883     20882     20884     20883     20884     20885     20886
     20885     20887     20886     20887     20888     20889     20888     20890
     20889     20890     20891     20892     20891     20893     20892     20893
     20894     20895     20894     20896     20895     20896     20897     20898
     20897     20899     20898     20899     20900     20901     20900     20902
     20901     20902     20903     20904     20903     20905     20904     20905
     20906     20907     20906     20908     20907     20908     20909     20910
     20909     20911     20910     20911     20912     20913     20912     20914
     20913     20914     20915     20916     20915     20917     20916     20917
     20918     20919     20918     20920     20919     20920     20921     20922
     20921     20923     20922     20923     20924     20925     20924     20926
     20925     20926     20927     20928     20927     20929     20928     20929
     20930     20931     20930     20932     20931     20932     20933     20934
     20933     20935     20934     20935     20936     20937     20936     20938
     20937     20938     20939     20940     20939     20941     20940     20941
     20942     20943     20942     20944     20943     20944     20945     20946
     20945     20947     20946     20947     20948     20949     20948     20950
     20949     20950     20951     20952     20951     20953     20952     20953
     20954     20955     20954     20956     20955     20956     20957     20958
     20957     20959     20958     20959     20960     20961     20960     20962
     20961     20962     20963     20964     20963     20965     20964     20965
     20966     20967     20966     20968     20967     20968     20969     20970
     20969     20971     20970     20971     20972     20973     20972     20974
     20973     20974     20975     20976     20975     20977     20976     20977
     20978     20979     20978     20980     20979     20980     20981     20982
     20981     20983     20982     20983     20984     20985     20984     20986
     20985     20986     20987     20988     20987     20989     20988     20989
     20990     20991     20990     20992     20991     20992     20993     20994
     20993     20995     20994     20995     20996     20997     20996     20998
     20997     20998     20999     21000     20999     21001     21000     21001
     21002     21003     21002     21004     21003     21004     21005     21006
     21005     21007     21006     21007     21008     21009     21008     21010
     21009     21010     21011     21012     21011     21013     21012     21013
     21014     21015     21014     21016     21015     21016     21017     21018
     21017     21019     21018     21019     21020     21021     21020     21022
     21021     21022     21023     21024     21023     21025     21024     21025
     21026     21027     21026     21028     21027     21028     21029     21030
     21029     21031     21030     21031     21032     21033     21032     21034
     21033     21034     21035     21036     21035     21037     21036     21037
     21038     21039     21038     21040     21039     21040     21041     21042
     21041     21043     21042     21043     21044     21045     21044     21046
     21045     21046     21047     21048     21047     21049     21048     21049
     21050     21051     21050     21052     21051     21052     21053     21054
     21053     21055     21054     21055     21056     21057     21056     21058
     21057     21058     21059     21060     21059     21061     21060     21061
     21062     21063     21062     21064     21063     21064     21065     21066
     21065     21067     21066     21067     21068     21069     21068     21070
     21069     21070     21071     21072     21071     21073     21072     21073
     21074     21075     21074     21076     21075     21076     21077     21078
     21077     21079     21078     21079     21080     21081     21080     21082
     21081     21082     21083     21084     21083     21085     21084     21085
     21086     21087     21086     21088     21087     21088     21089     21090
     21089     21091     21090     21091     21092     21093     21092     21094
     21093     21094     21095     21096     21095     21097     21096     21097
     21098     21099     21098     21100     21099     21100     21101     21102
     21101     21103     21102     21103     21104     21105     21104     21106
     21105     21106     21107     21108     21107     21109     21108     21109
     21110     21111     21110     21112     21111     21112     21113     21114
     21113     21115     21114     21115     21116     21117     21116     21118
     21117     21118     21119     21120     21119     21121     21120     21121
     21122     21123     21122     21124     21123     21124     21125     21126
     21125     21127     21126     21127     21128     21129     21128     21130
     21129     21130     21131     21132     21131     21133     21132     21133
     21134     21135     21134     21136     21135     21136     21137     21138
     21137     21139     21138     21139     21140     21141     21140     21142
     21141     21142     21143     21144     21143     21145     21144     21145
     21146     21147     21146     21148     21147     21148     21149     21150
     21149     21151     21150     21151     21152     21153     21152     21154
     21153     21154     21155     21156     21155     21157     21156     21157
     21158     21159     21158     21160     21159     21160     21161     21162
     21161     21163     21162     21163     21164     21165     21164     21166
     21165     21166     21167     21168     21167     21169     21168     21169
     21170     21171     21170     21172     21171     21172     21173     21174
     21173     21175     21174     21175     21176     21177     21176     21178
     21177     21178     21179     21180     21179     21181     21180     21181
     21182     21183     21182     21184     21183     21184     21185     21186
     21185     21187     21186     21187     21188     21189     21188     21190
     21189     21190     21191     21192     21191     21193     21192     21193
     21194     21195     21194     21196     21195     21196     21197     21198
     21197     21199     21198     21199     21200     21201     21200     21202
     21201     21202     21203     21204     21203     21205     21204     21205
     21206     21207     21206     21208     21207     21208     21209     21210
     21209     21211     21210     21211     21212     21213     21212     21214
     21213     21214     21215     21216     21215     21217     21216     21217
     21218     21219     21218     21220     21219     21220     21221     21222
     21221     21223     21222     21223     21224     21225     21224     21226
     21225     21226     21227     21228     21227     21229     21228     21229
     21230     21231     21230     21232     21231     21232     21233     21234
     21233     21235     21234     21235     21236     21237     21236     21238
     21237     21238     21239     21240     21239     21241     21240     21241
     21242     21243     21242     21244     21243     21244     21245     21246
     21245     21247     21246     21247     21248     21249     21248     21250
     21249     21250     21251     21252     21251     21253     21252     21253
     21254     21255     21254     21256     21255     21256     21257     21258
     21257     21259     21258     21259     21260     21261     21260     21262
     21261     21262     21263     21264     21263     21265     21264     21265
     21266     21267     21266     21268     21267     21268     21269     21270
     21269     21271     21270     21271     21272     21273     21272     21274
     21273     21274     21275     21276     21275     21277     21276     21277
     21278     21279     21278     21280     21279     21280     21281     21282
     21281     21283     21282     21283     21284     21285     21284     21286
     21285     21286     21287     21288     21287     21289     21288     21289
     21290     21291     21290     21292     21291     21292     21293     21294
     21293     21295     21294     21295     21296     21297     21296     21298
     21297     21298     21299     21300     21299     21301     21300     21301
     21302     21303     21302     21304     21303     21304     21305     21306
     21305     21307     21306     21307     21308     21309     21308     21310
     21309     21310     21311     21312     21311     21313     21312     21313
     21314     21315     21314     21316     21315     21316     21317     21318
     21317     21319     21318     21319     21320     21321     21320     21322
     21321     21322     21323     21324     21323     21325     21324     21325
     21326     21327     21326     21328     21327     21328     21329     21330
     21329     21331     21330     21331     21332     21333     21332     21334
     21333     21334     21335     21336     21335     21337     21336     21337
     21338     21339     21338     21340     21339     21340     21341     21342
     21341     21343     21342     21343     21344     21345     21344     21346
     21345     21346     21347     21348     21347     21349     21348     21349
     21350     21351     21350     21352     21351     21352     21353     21354
     21353     21355     21354     21355     21356     21357     21356     21358
     21357     21358     21359     21360     21359     21361     21360     21361
     21362     21363     21362     21364     21363     21364     21365     21366
     21365     21367     21366     21367     21368     21369     21368     21370
     21369     21370     21371     21372     21371     21373     21372     21373
     21374     21375     21374     21376     21375     21376     21377     21378
     21377     21379     21378     21379     21380     21381     21380     21382
     21381     21382     21383     21384     21383     21385     21384     21385
     21386     21387     21386     21388     21387     21388     21389     21390
     21389     21391     21390     21391     21392     21393     21392     21394
     21393     21394     21395     21396     21395     21397     21396     21397
     21398     21399     21398     21400     21399     21400     21401     21402
     21401     21403     21402     21403     21404     21405     21404     21406
     21405     21406     21407     21408     21407     21409     21408     21409
     21410     21411     21410     21412     21411     21412     21413     21414
     21413     21415     21414     21415     21416     21417     21416     21418
     21417     21418     21419     21420     21419     21421     21420     21421
     21422     21423     21422     21424     21423     21424     21425     21426
     21425     21427     21426     21427     21428     21429     21428     21430
     21429     21430     21431     21432     21431     21433     21432     21433
     21434     21435     21434     21436     21435     21436     21437     21438
     21437     21439     21438     21439     21440     21441     21440     21442
     21441     21442     21443     21444     21443     21445     21444     21445
     21446     21447     21446     21448     21447     21448     21449     21450
     21449     21451     21450     21451     21452     21453     21452     21454
     21453     21454     21455     21456     21455     21457     21456     21457
     21458     21459     21458     21460     21459     21460     21461     21462
     21461     21463     21462     21463     21464     21465     21464     21466
     21465     21466     21467     21468     21467     21469     21468     21469
     21470     21471     21470     21472     21471     21472     21473     21474
     21473     21475     21474     21475     21476     21477     21476     21478
     21477     21478     21479     21480     21479     21481     21480     21481
     21482     21483     21482     21484     21483     21484     21485     21486
     21485     21487     21486     21487     21488     21489     21488     21490
     21489     21490     21491     21492     21491     21493     21492     21493
     21494     21495     21494     21496     21495     21496     21497     21498
     21497     21499     21498     21499     21500     21501     21500     21502
     21501     21502     21503     21504     21503     21505     21504     21505
     21506     21507     21506     21508     21507     21508     21509     21510
     21509     21511     21510     21511     21512     21513     21512     21514
     21513     21514     21515     21516     21515     21517     21516     21517
     21518     21519     21518     21520     21519     21520     21521     21522
     21521     21523     21522     21523     21524     21525     21524     21526
     21525     21526     21527     21528     21527     21529     21528     21529
     21530     21531     21530     21532     21531     21532     21533     21534
     21533     21535     21534     21535     21536     21537     21536     21538
     21537     21538     21539     21540     21539     21541     21540     21541
     21542     21543     21542     21544     21543     21544     21545     21546
     21545     21547     21546     21547     21548     21549     21548     21550
     21549     21550     21551     21552     21551     21553     21552     21553
     21554     21555     21554     21556     21555     21556     21557     21558
     21557     21559     21558     21559     21560     21561     21560     21562
     21561     21562     21563     21564     21563     21565     21564     21565
     21566     21567     21566     21568     21567     21568     21569     21570
     21569     21571     21570     21571     21572     21573     21572     21574
     21573     21574     21575     21576     21575     21577     21576     21577
     21578     21579     21578     21580     21579     21580     21581     21582
     21581     21583     21582     21583     21584     21585     21584     21586
     21585     21586     21587     21588     21587     21589     21588     21589
     21590     21591     21590     21592     21591     21592     21593     21594
     21593     21595     21594     21595     21596     21597     21596     21598
     21597     21598     21599     21600     21599     21601     21600     21601
     21602     21603     21602     21604     21603     21604     21605     21606
     21605     21607     21606     21607     21608     21609     21608     21610
     21609     21610     21611     21612     21611     21613     21612     21613
     21614     21615     21614     21616     21615     21616     21617     21618
     21617     21619     21618     21619     21620     21621     21620     21622
     21621     21622     21623     21624     21623     21625     21624     21625
     21626     21627     21626     21628     21627     21628     21629     21630
     21629     21631     21630     21631     21632     21633     21632     21634
     21633     21634     21635     21636     21635     21637     21636     21637
     21638     21639     21638     21640     21639     21640     21641     21642
     21641     21643     21642     21643     21644     21645     21644     21646
     21645     21646     21647     21648     21647     21649     21648     21649
     21650     21651     21650     21652     21651     21652     21653     21654
     21653     21655     21654     21655     21656     21657     21656     21658
     21657     21658     21659     21660     21659     21661     21660     21661
     21662     21663     21662     21664     21663     21664     21665     21666
     21665     21667     21666     21667     21668     21669     21668     21670
     21669     21670     21671     21672     21671     21673     21672     21673
     21674     21675     21674     21676     21675     21676     21677     21678
     21677     21679     21678     21679     21680     21681     21680     21682
     21681     21682     21683     21684     21683     21685     21684     21685
     21686     21687     21686     21688     21687     21688     21689     21690
     21689     21691     21690     21691     21692     21693     21692     21694
     21693     21694     21695     21696     21695     21697     21696     21697
     21698     21699     21698     21700     21699     21700     21701     21702
     21701     21703     21702     21703     21704     21705     21704     21706
     21705     21706     21707     21708     21707     21709     21708     21709
     21710     21711     21710     21712     21711     21712     21713     21714
     21713     21715     21714     21715     21716     21717     21716     21718
     21717     21718     21719     21720     21719     21721     21720     21721
     21722     21723     21722     21724     21723     21724     21725     21726
     21725     21727     21726     21727     21728     21729     21728     21730
     21729     21730     21731     21732     21731     21733     21732     21733
     21734     21735     21734     21736     21735     21736     21737     21738
     21737     21739     21738     21739     21740     21741     21740     21742
     21741     21742     21743     21744     21743     21745     21744     21745
     21746     21747     21746     21748     21747     21748     21749     21750
     21749     21751     21750     21751     21752     21753     21752     21754
     21753     21754     21755     21756     21755     21757     21756     21757
     21758     21759     21758     21760     21759     21760     21761     21762
     21761     21763     21762     21763     21764     21765     21764     21766
     21765     21766     21767     21768     21767     21769     21768     21769
     21770     21771     21770     21772     21771     21772     21773     21774
     21773     21775     21774     21775     21776     21777     21776     21778
     21777     21778     21779     21780     21779     21781     21780     21781
     21782     21783     21782     21784     21783     21784     21785     21786
     21785     21787     21786     21787     21788     21789     21788     21790
     21789     21790     21791     21792     21791     21793     21792     21793
     21794     21795     21794     21796     21795     21796     21797     21798
     21797     21799     21798     21799     21800     21801     21800     21802
     21801     21802     21803     21804     21803     21805     21804     21805
     21806     21807     21806     21808     21807     21808     21809     21810
     21809     21811     21810     21811     21812     21813     21812     21814
     21813     21814     21815     21816     21815     21817     21816     21817
     21818     21819     21818     21820     21819     21820     21821     21822
     21821     21823     21822     21823     21824     21825     21824     21826
     21825     21826     21827     21828     21827     21829     21828     21829
     21830     21831     21830     21832     21831     21832     21833     21834
     21833     21835     21834     21835     21836     21837     21836     21838
     21837     21838     21839     21840     21839     21841     21840     21841
     21842     21843     21842     21844     21843     21844     21845     21846
     21845     21847     21846     21847     21848     21849     21848     21850
     21849     21850     21851     21852     21851     21853     21852     21853
     21854     21855     21854     21856     21855     21856     21857     21858
     21857     21859     21858     21859     21860     21861     21860     21862
     21861     21862     21863     21864     21863     21865     21864     21865
     21866     21867     21866     21868     21867     21868     21869     21870
     21869     21871     21870     21871     21872     21873     21872     21874
     21873     21874     21875     21876     21875     21877     21876     21877
     21878     21879     21878     21880     21879     21880     21881     21882
     21881     21883     21882     21883     21884     21885     21884     21886
     21885     21886     21887     21888     21887     21889     21888     21889
     21890     21891     21890     21892     21891     21892     21893     21894
     21893     21895     21894     21895     21896     21897     21896     21898
     21897     21898     21899     21900     21899     21901     21900     21901
     21902     21903     21902     21904     21903     21904     21905     21906
     21905     21907     21906     21907     21908     21909     21908     21910
     21909     21910     21911     21912     21911     21913     21912     21913
     21914     21915     21914     21916     21915     21916     21917     21918
     21917     21919     21918     21919     21920     21921     21920     21922
     21921     21922     21923     21924     21923     21925     21924     21925
     21926     21927     21926     21928     21927     21928     21929     21930
     21929     21931     21930     21931     21932     21933     21932     21934
     21933     21934     21935     21936     21935     21937     21936     21937
     21938     21939     21938     21940     21939     21940     21941     21942
     21941     21943     21942     21943     21944     21945     21944     21946
     21945     21946     21947     21948     21947     21949     21948     21949
     21950     21951     21950     21952     21951     21952     21953     21954
     21953     21955     21954     21955     21956     21957     21956     21958
     21957     21958     21959     21960     21959     21961     21960     21961
     21962     21963     21962     21964     21963     21964     21965     21966
     21965     21967     21966     21967     21968     21969     21968     21970
     21969     21970     21971     21972     21971     21973     21972     21973
     21974     21975     21974     21976     21975     21976     21977     21978
     21977     21979     21978     21979     21980     21981     21980     21982
     21981     21982     21983     21984     21983     21985     21984     21985
     21986     21987     21986     21988     21987     21988     21989     21990
     21989     21991     21990     21991     21992     21993     21992     21994
     21993     21994     21995     21996     21995     21997     21996     21997
     21998     21999     21998     22000     21999     22000     22001     22002
     22001     22003     22002     22003     22004     22005     22004     22006
     22005     22006     22007     22008     22007     22009     22008     22009
     22010     22011     22010     22012     22011     22012     22013     22014
     22013     22015     22014     22015     22016     22017     22016     22018
     22017     22018     22019     22020     22019     22021     22020     22021
     22022     22023     22022     22024     22023     22024     22025     22026
     22025     22027     22026     22027     22028     22029     22028     22030
     22029     22030     22031     22032     22031     22033     22032     22033
     22034     22035     22034     22036     22035     22036     22037     22038
     22037     22039     22038     22039     22040     22041     22040     22042
     22041     22042     22043     22044     22043     22045     22044     22045
     22046     22047     22046     22048     22047     22048     22049     22050
     22049     22051     22050     22051     22052     22053     22052     22054
     22053     22054     22055     22056     22055     22057     22056     22057
     22058     22059     22058     22060     22059     22060     22061     22062
     22061     22063     22062     22063     22064     22065     22064     22066
     22065     22066     22067     22068     22067     22069     22068     22069
     22070     22071     22070     22072     22071     22072     22073     22074
     22073     22075     22074     22075     22076     22077     22076     22078
     22077     22078     22079     22080     22079     22081     22080     22081
     22082     22083     22082     22084     22083     22084     22085     22086
     22085     22087     22086     22087     22088     22089     22088     22090
     22089     22090     22091     22092     22091     22093     22092     22093
     22094     22095     22094     22096     22095     22096     22097     22098
     22097     22099     22098     22099     22100     22101     22100     22102
     22101     22102     22103     22104     22103     22105     22104     22105
     22106     22107     22106     22108     22107     22108     22109     22110
     22109     22111     22110     22111     22112     22113     22112     22114
     22113     22114     22115     22116     22115     22117     22116     22117
     22118     22119     22118     22120     22119     22120     22121     22122
     22121     22123     22122     22123     22124     22125     22124     22126
     22125     22126     22127     22128     22127     22129     22128     22129
     22130     22131     22130     22132     22131     22132     22133     22134
     22133     22135     22134     22135     22136     22137     22136     22138
     22137     22138     22139     22140     22139     22141     22140     22141
     22142     22143     22142     22144     22143     22144     22145     22146
     22145     22147     22146     22147     22148     22149     22148     22150
     22149     22150     22151     22152     22151     22153     22152     22153
     22154     22155     22154     22156     22155     22156     22157     22158
     22157     22159     22158     22159     22160     22161     22160     22162
     22161     22162     22163     22164     22163     22165     22164     22165
     22166     22167     22166     22168     22167     22168     22169     22170
     22169     22171     22170     22171     22172     22173     22172     22174
     22173     22174     22175     22176     22175     22177     22176     22177
     22178     22179     22178     22180     22179     22180     22181     22182
     22181     22183     22182     22183     22184     22185     22184     22186
     22185     22186     22187     22188     22187     22189     22188     22189
     22190     22191     22190     22192     22191     22192     22193     22194
     22193     22195     22194     22195     22196     22197     22196     22198
     22197     22198     22199     22200     22199     22201     22200     22201
     22202     22203     22202     22204     22203     22204     22205     22206
     22205     22207     22206     22207     22208     22209     22208     22210
     22209     22210     22211     22212     22211     22213     22212     22213
     22214     22215     22214     22216     22215     22216     22217     22218
     22217     22219     22218     22219     22220     22221     22220     22222
     22221     22222     22223     22224     22223     22225     22224     22225
     22226     22227     22226     22228     22227     22228     22229     22230
     22229     22231     22230     22231     22232     22233     22232     22234
     22233     22234     22235     22236     22235     22237     22236     22237
     22238     22239     22238     22240     22239     22240     22241     22242
     22241     22243     22242     22243     22244     22245     22244     22246
     22245     22246     22247     22248     22247     22249     22248     22249
     22250     22251     22250     22252     22251     22252     22253     22254
     22253     22255     22254     22255     22256     22257     22256     22258
     22257     22258     22259     22260     22259     22261     22260     22261
     22262     22263     22262     22264     22263     22264     22265     22266
     22265     22267     22266     22267     22268     22269     22268     22270
     22269     22270     22271     22272     22271     22273     22272     22273
     22274     22275     22274     22276     22275     22276     22277     22278
     22277     22279     22278     22279     22280     22281     22280     22282
     22281     22282     22283     22284     22283     22285     22284     22285
     22286     22287     22286     22288     22287     22288     22289     22290
     22289     22291     22290     22291     22292     22293     22292     22294
     22293     22294     22295     22296     22295     22297     22296     22297
     22298     22299     22298     22300     22299     22300     22301     22302
     22301     22303     22302     22303     22304     22305     22304     22306
     22305     22306     22307     22308     22307     22309     22308     22309
     22310     22311     22310     22312     22311     22312     22313     22314
     22313     22315     22314     22315     22316     22317     22316     22318
     22317     22318     22319     22320     22319     22321     22320     22321
     22322     22323     22322     22324     22323     22324     22325     22326
     22325     22327     22326     22327     22328     22329     22328     22330
     22329     22330     22331     22332     22331     22333     22332     22333
     22334     22335     22334     22336     22335     22336     22337     22338
     22337     22339     22338     22339     22340     22341     22340     22342
     22341     22342     22343     22344     22343     22345     22344     22345
     22346     22347     22346     22348     22347     22348     22349     22350
     22349     22351     22350     22351     22352     22353     22352     22354
     22353     22354     22355     22356     22355     22357     22356     22357
     22358     22359     22358     22360     22359     22360     22361     22362
     22361     22363     22362     22363     22364     22365     22364     22366
     22365     22366     22367     22368     22367     22369     22368     22369
     22370     22371     22370     22372     22371     22372     22373     22374
     22373     22375     22374     22375     22376     22377     22376     22378
     22377     22378     22379     22380     22379     22381     22380     22381
     22382     22383     22382     22384     22383     22384     22385     22386
     22385     22387     22386     22387     22388     22389     22388     22390
     22389     22390     22391     22392     22391     22393     22392     22393
     22394     22395     22394     22396     22395     22396     22397     22398
     22397     22399     22398     22399     22400     22401     22400     22402
     22401     22402     22403     22404     22403     22405     22404     22405
     22406     22407     22406     22408     22407     22408     22409     22410
     22409     22411     22410     22411     22412     22413     22412     22414
     22413     22414     22415     22416     22415     22417     22416     22417
     22418     22419     22418     22420     22419     22420     22421     22422
     22421     22423     22422     22423     22424     22425     22424     22426
     22425     22426     22427     22428     22427     22429     22428     22429
     22430     22431     22430     22432     22431     22432     22433     22434
     22433     22435     22434     22435     22436     22437     22436     22438
     22437     22438     22439     22440     22439     22441     22440     22441
     22442     22443     22442     22444     22443     22444     22445     22446
     22445     22447     22446     22447     22448     22449     22448     22450
     22449     22450     22451     22452     22451     22453     22452     22453
     22454     22455     22454     22456     22455     22456     22457     22458
     22457     22459     22458     22459     22460     22461     22460     22462
     22461     22462     22463     22464     22463     22465     22464     22465
     22466     22467     22466     22468     22467     22468     22469     22470
     22469     22471     22470     22471     22472     22473     22472     22474
     22473     22474     22475     22476     22475     22477     22476     22477
     22478     22479     22478     22480     22479     22480     22481     22482
     22481     22483     22482     22483     22484     22485     22484     22486
     22485     22486     22487     22488     22487     22489     22488     22489
     22490     22491     22490     22492     22491     22492     22493     22494
     22493     22495     22494     22495     22496     22497     22496     22498
     22497     22498     22499     22500     22499     22501     22500     22501
     22502     22503     22502     22504     22503     22504     22505     22506
     22505     22507     22506     22507     22508     22509     22508     22510
     22509     22510     22511     22512     22511     22513     22512     22513
     22514     22515     22514     22516     22515     22516     22517     22518
     22517     22519     22518     22519     22520     22521     22520     22522
     22521     22522     22523     22524     22523     22525     22524     22525
     22526     22527     22526     22528     22527     22528     22529     22530
     22529     22531     22530     22531     22532     22533     22532     22534
     22533     22534     22535     22536     22535     22537     22536     22537
     22538     22539     22538     22540     22539     22540     22541     22542
     22541     22543     22542     22543     22544     22545     22544     22546
     22545     22546     22547     22548     22547     22549     22548     22549
     22550     22551     22550     22552     22551     22552     22553     22554
     22553     22555     22554     22555     22556     22557     22556     22558
     22557     22558     22559     22560     22559     22561     22560     22561
     22562     22563     22562     22564     22563     22564     22565     22566
     22565     22567     22566     22567     22568     22569     22568     22570
     22569     22570     22571     22572     22571     22573     22572     22573
     22574     22575     22574     22576     22575     22576     22577     22578
     22577     22579     22578     22579     22580     22581     22580     22582
     22581     22582     22583     22584     22583     22585     22584     22585
     22586     22587     22586     22588     22587     22588     22589     22590
     22589     22591     22590     22591     22592     22593     22592     22594
     22593     22594     22595     22596     22595     22597     22596     22597
     22598     22599     22598     22600     22599     22600     22601     22602
     22601     22603     22602     22603     22604     22605     22604     22606
     22605     22606     22607     22608     22607     22609     22608     22609
     22610     22611     22610     22612     22611     22612     22613     22614
     22613     22615     22614     22615     22616     22617     22616     22618
     22617     22618     22619     22620     22619     22621     22620     22621
     22622     22623     22622     22624     22623     22624     22625     22626
     22625     22627     22626     22627     22628     22629     22628     22630
     22629     22630     22631     22632     22631     22633     22632     22633
     22634     22635     22634     22636     22635     22636     22637     22638
     22637     22639     22638     22639     22640     22641     22640     22642
     22641     22642     22643     22644     22643     22645     22644     22645
     22646     22647     22646     22648     22647     22648     22649     22650
     22649     22651     22650     22651     22652     22653     22652     22654
     22653     22654     22655     22656     22655     22657     22656     22657
     22658     22659     22658     22660     22659     22660     22661     22662
     22661     22663     22662     22663     22664     22665     22664     22666
     22665     22666     22667     22668     22667     22669     22668     22669
     22670     22671     22670     22672     22671     22672     22673     22674
     22673     22675     22674     22675     22676     22677     22676     22678
     22677     22678     22679     22680     22679     22681     22680     22681
     22682     22683     22682     22684     22683     22684     22685     22686
     22685     22687     22686     22687     22688     22689     22688     22690
     22689     22690     22691     22692     22691     22693     22692     22693
     22694     22695     22694     22696     22695     22696     22697     22698
     22697     22699     22698     22699     22700     22701     22700     22702
     22701     22702     22703     22704     22703     22705     22704     22705
     22706     22707     22706     22708     22707     22708     22709     22710
     22709     22711     22710     22711     22712     22713     22712     22714
     22713     22714     22715     22716     22715     22717     22716     22717
     22718     22719     22718     22720     22719     22720     22721     22722
     22721     22723     22722     22723     22724     22725     22724     22726
     22725     22726     22727     22728     22727     22729     22728     22729
     22730     22731     22730     22732     22731     22732     22733     22734
     22733     22735     22734     22735     22736     22737     22736     22738
     22737     22738     22739     22740     22739     22741     22740     22741
     22742     22743     22742     22744     22743     22744     22745     22746
     22745     22747     22746     22747     22748     22749     22748     22750
     22749     22750     22751     22752     22751     22753     22752     22753
     22754     22755     22754     22756     22755     22756     22757     22758
     22757     22759     22758     22759     22760     22761     22760     22762
     22761     22762     22763     22764     22763     22765     22764     22765
     22766     22767     22766     22768     22767     22768     22769     22770
     22769     22771     22770     22771     22772     22773     22772     22774
     22773     22774     22775     22776     22775     22777     22776     22777
     22778     22779     22778     22780     22779     22780     22781     22782
     22781     22783     22782     22783     22784     22785     22784     22786
     22785     22786     22787     22788     22787     22789     22788     22789
     22790     22791     22790     22792     22791     22792     22793     22794
     22793     22795     22794     22795     22796     22797     22796     22798
     22797     22798     22799     22800     22799     22801     22800     22801
     22802     22803     22802     22804     22803     22804     22805     22806
     22805     22807     22806     22807     22808     22809     22808     22810
     22809     22810     22811     22812     22811     22813     22812     22813
     22814     22815     22814     22816     22815     22816     22817     22818
     22817     22819     22818     22819     22820     22821     22820     22822
     22821     22822     22823     22824     22823     22825     22824     22825
     22826     22827     22826     22828     22827     22828     22829     22830
     22829     22831     22830     22831     22832     22833     22832     22834
     22833     22834     22835     22836     22835     22837     22836     22837
     22838     22839     22838     22840     22839     22840     22841     22842
     22841     22843     22842     22843     22844     22845     22844     22846
     22845     22846     22847     22848     22847     22849     22848     22849
     22850     22851     22850     22852     22851     22852     22853     22854
     22853     22855     22854     22855     22856     22857     22856     22858
     22857     22858     22859     22860     22859     22861     22860     22861
     22862     22863     22862     22864     22863     22864     22865     22866
     22865     22867     22866     22867     22868     22869     22868     22870
     22869     22870     22871     22872     22871     22873     22872     22873
     22874     22875     22874     22876     22875     22876     22877     22878
     22877     22879     22878     22879     22880     22881     22880     22882
     22881     22882     22883     22884     22883     22885     22884     22885
     22886     22887     22886     22888     22887     22888     22889     22890
     22889     22891     22890     22891     22892     22893     22892     22894
     22893     22894     22895     22896     22895     22897     22896     22897
     22898     22899     22898     22900     22899     22900     22901     22902
     22901     22903     22902     22903     22904     22905     22904     22906
     22905     22906     22907     22908     22907     22909     22908     22909
     22910     22911     22910     22912     22911     22912     22913     22914
     22913     22915     22914     22915     22916     22917     22916     22918
     22917     22918     22919     22920     22919     22921     22920     22921
     22922     22923     22922     22924     22923     22924     22925     22926
     22925     22927     22926     22927     22928     22929     22928     22930
     22929     22930     22931     22932     22931     22933     22932     22933
     22934     22935     22934     22936     22935     22936     22937     22938
     22937     22939     22938     22939     22940     22941     22940     22942
     22941     22942     22943     22944     22943     22945     22944     22945
     22946     22947     22946     22948     22947     22948     22949     22950
     22949     22951     22950     22951     22952     22953     22952     22954
     22953     22954     22955     22956     22955     22957     22956     22957
     22958     22959     22958     22960     22959     22960     22961     22962
     22961     22963     22962     22963     22964     22965     22964     22966
     22965     22966     22967     22968     22967     22969     22968     22969
     22970     22971     22970     22972     22971     22972     22973     22974
     22973     22975     22974     22975     22976     22977     22976     22978
     22977     22978     22979     22980     22979     22981     22980     22981
     22982     22983     22982     22984     22983     22984     22985     22986
     22985     22987     22986     22987     22988     22989     22988     22990
     22989     22990     22991     22992     22991     22993     22992     22993
     22994     22995     22994     22996     22995     22996     22997     22998
     22997     22999     22998     22999     23000     23001     23000     23002
     23001     23002     23003     23004     23003     23005     23004     23005
     23006     23007     23006     23008     23007     23008     23009     23010
     23009     23011     23010     23011     23012     23013     23012     23014
     23013     23014     23015     23016     23015     23017     23016     23017
     23018     23019     23018     23020     23019     23020     23021     23022
     23021     23023     23022     23023     23024     23025     23024     23026
     23025     23026     23027     23028     23027     23029     23028     23029
     23030     23031     23030     23032     23031     23032     23033     23034
     23033     23035     23034     23035     23036     23037     23036     23038
     23037     23038     23039     23040     23039     23041     23040     23041
     23042     23043     23042     23044     23043     23044     23045     23046
     23045     23047     23046     23047     23048     23049     23048     23050
     23049     23050     23051     23052     23051     23053     23052     23053
     23054     23055     23054     23056     23055     23056     23057     23058
     23057     23059     23058     23059     23060     23061     23060     23062
     23061     23062     23063     23064     23063     23065     23064     23065
     23066     23067     23066     23068     23067     23068     23069     23070
     23069     23071     23070     23071     23072     23073     23072     23074
     23073     23074     23075     23076     23075     23077     23076     23077
     23078     23079     23078     23080     23079     23080     23081     23082
     23081     23083     23082     23083     23084     23085     23084     23086
     23085     23086     23087     23088     23087     23089     23088     23089
     23090     23091     23090     23092     23091     23092     23093     23094
     23093     23095     23094     23095     23096     23097     23096     23098
     23097     23098     23099     23100     23099     23101     23100     23101
     23102     23103     23102     23104     23103     23104     23105     23106
     23105     23107     23106     23107     23108     23109     23108     23110
     23109     23110     23111     23112     23111     23113     23112     23113
     23114     23115     23114     23116     23115     23116     23117     23118
     23117     23119     23118     23119     23120     23121     23120     23122
     23121     23122     23123     23124     23123     23125     23124     23125
     23126     23127     23126     23128     23127     23128     23129     23130
     23129     23131     23130     23131     23132     23133     23132     23134
     23133     23134     23135     23136     23135     23137     23136     23137
     23138     23139     23138     23140     23139     23140     23141     23142
     23141     23143     23142     23143     23144     23145     23144     23146
     23145     23146     23147     23148     23147     23149     23148     23149
     23150     23151     23150     23152     23151     23152     23153     23154
     23153     23155     23154     23155     23156     23157     23156     23158
     23157     23158     23159     23160     23159     23161     23160     23161
     23162     23163     23162     23164     23163     23164     23165     23166
     23165     23167     23166     23167     23168     23169     23168     23170
     23169     23170     23171     23172     23171     23173     23172     23173
     23174     23175     23174     23176     23175     23176     23177     23178
     23177     23179     23178     23179     23180     23181     23180     23182
     23181     23182     23183     23184     23183     23185     23184     23185
     23186     23187     23186     23188     23187     23188     23189     23190
     23189     23191     23190     23191     23192     23193     23192     23194
     23193     23194     23195     23196     23195     23197     23196     23197
     23198     23199     23198     23200     23199     23200     23201     23202
     23201     23203     23202     23203     23204     23205     23204     23206
     23205     23206     23207     23208     23207     23209     23208     23209
     23210     23211     23210     23212     23211     23212     23213     23214
     23213     23215     23214     23215     23216     23217     23216     23218
     23217     23218     23219     23220     23219     23221     23220     23221
     23222     23223     23222     23224     23223     23224     23225     23226
     23225     23227     23226     23227     23228     23229     23228     23230
     23229     23230     23231     23232     23231     23233     23232     23233
     23234     23235     23234     23236     23235     23236     23237     23238
     23237     23239     23238     23239     23240     23241     23240     23242
     23241     23242     23243     23244     23243     23245     23244     23245
     23246     23247     23246     23248     23247     23248     23249     23250
     23249     23251     23250     23251     23252     23253     23252     23254
     23253     23254     23255     23256     23255     23257     23256     23257
     23258     23259     23258     23260     23259     23260     23261     23262
     23261     23263     23262     23263     23264     23265     23264     23266
     23265     23266     23267     23268     23267     23269     23268     23269
     23270     23271     23270     23272     23271     23272     23273     23274
     23273     23275     23274     23275     23276     23277     23276     23278
     23277     23278     23279     23280     23279     23281     23280     23281
     23282     23283     23282     23284     23283     23284     23285     23286
     23285     23287     23286     23287     23288     23289     23288     23290
     23289     23290     23291     23292     23291     23293     23292     23293
     23294     23295     23294     23296     23295     23296     23297     23298
     23297     23299     23298     23299     23300     23301     23300     23302
     23301     23302     23303     23304     23303     23305     23304     23305
     23306     23307     23306     23308     23307     23308     23309     23310
     23309     23311     23310     23311     23312     23313     23312     23314
     23313     23314     23315     23316     23315     23317     23316     23317
     23318     23319     23318     23320     23319     23320     23321     23322
     23321     23323     23322     23323     23324     23325     23324     23326
     23325     23326     23327     23328     23327     23329     23328     23329
     23330     23331     23330     23332     23331     23332     23333     23334
     23333     23335     23334     23335     23336     23337     23336     23338
     23337     23338     23339     23340     23339     23341     23340     23341
     23342     23343     23342     23344     23343     23344     23345     23346
     23345     23347     23346     23347     23348     23349     23348     23350
     23349     23350     23351     23352     23351     23353     23352     23353
     23354     23355     23354     23356     23355     23356     23357     23358
     23357     23359     23358     23359     23360     23361     23360     23362
     23361     23362     23363     23364     23363     23365     23364     23365
     23366     23367     23366     23368     23367     23368     23369     23370
     23369     23371     23370     23371     23372     23373     23372     23374
     23373     23374     23375     23376     23375     23377     23376     23377
     23378     23379     23378     23380     23379     23380     23381     23382
     23381     23383     23382     23383     23384     23385     23384     23386
     23385     23386     23387     23388     23387     23389     23388     23389
     23390     23391     23390     23392     23391     23392     23393     23394
     23393     23395     23394     23395     23396     23397     23396     23398
     23397     23398     23399     23400     23399     23401     23400     23401
     23402     23403     23402     23404     23403     23404     23405     23406
     23405     23407     23406     23407     23408     23409     23408     23410
     23409     23410     23411     23412     23411     23413     23412     23413
     23414     23415     23414     23416     23415     23416     23417     23418
     23417     23419     23418     23419     23420     23421     23420     23422
     23421     23422     23423     23424     23423     23425     23424     23425
     23426     23427     23426     23428     23427     23428     23429     23430
     23429     23431     23430     23431     23432     23433     23432     23434
     23433     23434     23435     23436     23435     23437     23436     23437
     23438     23439     23438     23440     23439     23440     23441     23442
     23441     23443     23442     23443     23444     23445     23444     23446
     23445     23446     23447     23448     23447     23449     23448     23449
     23450     23451     23450     23452     23451     23452     23453     23454
     23453     23455     23454     23455     23456     23457     23456     23458
     23457     23458     23459     23460     23459     23461     23460     23461
     23462     23463     23462     23464     23463     23464     23465     23466
     23465     23467     23466     23467     23468     23469     23468     23470
     23469     23470     23471     23472     23471     23473     23472     23473
     23474     23475     23474     23476     23475     23476     23477     23478
     23477     23479     23478     23479     23480     23481     23480     23482
     23481     23482     23483     23484     23483     23485     23484     23485
     23486     23487     23486     23488     23487     23488     23489     23490
     23489     23491     23490     23491     23492     23493     23492     23494
     23493     23494     23495     23496     23495     23497     23496     23497
     23498     23499     23498     23500     23499     23500     23501     23502
     23501     23503     23502     23503     23504     23505     23504     23506
     23505     23506     23507     23508     23507     23509     23508     23509
     23510     23511     23510     23512     23511     23512     23513     23514
     23513     23515     23514     23515     23516     23517     23516     23518
     23517     23518     23519     23520     23519     23521     23520     23521
     23522     23523     23522     23524     23523     23524     23525     23526
     23525     23527     23526     23527     23528     23529     23528     23530
     23529     23530     23531     23532     23531     23533     23532     23533
     23534     23535     23534     23536     23535     23536     23537     23538
     23537     23539     23538     23539     23540     23541     23540     23542
     23541     23542     23543     23544     23543     23545     23544     23545
     23546     23547     23546     23548     23547     23548     23549     23550
     23549     23551     23550     23551     23552     23553     23552     23554
     23553     23554     23555     23556     23555     23557     23556     23557
     23558     23559     23558     23560     23559     23560     23561     23562
     23561     23563     23562     23563     23564     23565     23564     23566
     23565     23566     23567     23568     23567     23569     23568     23569
     23570     23571     23570     23572     23571     23572     23573     23574
     23573     23575     23574     23575     23576     23577     23576     23578
     23577     23578     23579     23580     23579     23581     23580     23581
     23582     23583     23582     23584     23583     23584     23585     23586
     23585     23587     23586     23587     23588     23589     23588     23590
     23589     23590     23591     23592     23591     23593     23592     23593
     23594     23595     23594     23596     23595     23596     23597     23598
     23597     23599     23598     23599     23600     23601     23600     23602
     23601     23602     23603     23604     23603     23605     23604     23605
     23606     23607     23606     23608     23607     23608     23609     23610
     23609     23611     23610     23611     23612     23613     23612     23614
     23613     23614     23615     23616     23615     23617     23616     23617
     23618     23619     23618     23620     23619     23620     23621     23622
     23621     23623     23622     23623     23624     23625     23624     23626
     23625     23626     23627     23628     23627     23629     23628     23629
     23630     23631     23630     23632     23631     23632     23633     23634
     23633     23635     23634     23635     23636     23637     23636     23638
     23637     23638     23639     23640     23639     23641     23640     23641
     23642     23643     23642     23644     23643     23644     23645     23646
     23645     23647     23646     23647     23648     23649     23648     23650
     23649     23650     23651     23652     23651     23653     23652     23653
     23654     23655     23654     23656     23655     23656     23657     23658
     23657     23659     23658     23659     23660     23661     23660     23662
     23661     23662     23663     23664     23663     23665     23664     23665
     23666     23667     23666     23668     23667     23668     23669     23670
     23669     23671     23670     23671     23672     23673     23672     23674
     23673     23674     23675     23676     23675     23677     23676     23677
     23678     23679     23678     23680     23679     23680     23681     23682
     23681     23683     23682     23683     23684     23685     23684     23686
     23685     23686     23687     23688     23687     23689     23688     23689
     23690     23691     23690     23692     23691     23692     23693     23694
     23693     23695     23694     23695     23696     23697     23696     23698
     23697     23698     23699     23700     23699     23701     23700     23701
     23702     23703     23702     23704     23703     23704     23705     23706
     23705     23707     23706     23707     23708     23709     23708     23710
     23709     23710     23711     23712     23711     23713     23712     23713
     23714     23715     23714     23716     23715     23716     23717     23718
     23717     23719     23718     23719     23720     23721     23720     23722
     23721     23722     23723     23724     23723     23725     23724     23725
     23726     23727     23726     23728     23727     23728     23729     23730
     23729     23731     23730     23731     23732     23733     23732     23734
     23733     23734     23735     23736     23735     23737     23736     23737
     23738     23739     23738     23740     23739     23740     23741     23742
     23741     23743     23742     23743     23744     23745     23744     23746
     23745     23746     23747     23748     23747     23749     23748     23749
     23750     23751     23750     23752     23751     23752     23753     23754
     23753     23755     23754     23755     23756     23757     23756     23758
     23757     23758     23759     23760     23759     23761     23760     23761
     23762     23763     23762     23764     23763     23764     23765     23766
     23765     23767     23766     23767     23768     23769     23768     23770
     23769     23770     23771     23772     23771     23773     23772     23773
     23774     23775     23774     23776     23775     23776     23777     23778
     23777     23779     23778     23779     23780     23781     23780     23782
     23781     23782     23783     23784     23783     23785     23784     23785
     23786     23787     23786     23788     23787     23788     23789     23790
     23789     23791     23790     23791     23792     23793     23792     23794
     23793     23794     23795     23796     23795     23797     23796     23797
     23798     23799     23798     23800     23799     23800     23801     23802
     23801     23803     23802     23803     23804     23805     23804     23806
     23805     23806     23807     23808     23807     23809     23808     23809
     23810     23811     23810     23812     23811     23812     23813     23814
     23813     23815     23814     23815     23816     23817     23816     23818
     23817     23818     23819     23820     23819     23821     23820     23821
     23822     23823     23822     23824     23823     23824     23825     23826
     23825     23827     23826     23827     23828     23829     23828     23830
     23829     23830     23831     23832     23831     23833     23832     23833
     23834     23835     23834     23836     23835     23836     23837     23838
     23837     23839     23838     23839     23840     23841     23840     23842
     23841     23842     23843     23844     23843     23845     23844     23845
     23846     23847     23846     23848     23847     23848     23849     23850
     23849     23851     23850     23851     23852     23853     23852     23854
     23853     23854     23855     23856     23855     23857     23856     23857
     23858     23859     23858     23860     23859     23860     23861     23862
     23861     23863     23862     23863     23864     23865     23864     23866
     23865     23866     23867     23868     23867     23869     23868     23869
     23870     23871     23870     23872     23871     23872     23873     23874
     23873     23875     23874     23875     23876     23877     23876     23878
     23877     23878     23879     23880     23879     23881     23880     23881
     23882     23883     23882     23884     23883     23884     23885     23886
     23885     23887     23886     23887     23888     23889     23888     23890
     23889     23890     23891     23892     23891     23893     23892     23893
     23894     23895     23894     23896     23895     23896     23897     23898
     23897     23899     23898     23899     23900     23901     23900     23902
     23901     23902     23903     23904     23903     23905     23904     23905
     23906     23907     23906     23908     23907     23908     23909     23910
     23909     23911     23910     23911     23912     23913     23912     23914
     23913     23914     23915     23916     23915     23917     23916     23917
     23918     23919     23918     23920     23919     23920     23921     23922
     23921     23923     23922     23923     23924     23925     23924     23926
     23925     23926     23927     23928     23927     23929     23928     23929
     23930     23931     23930     23932     23931     23932     23933     23934
     23933     23935     23934     23935     23936     23937     23936     23938
     23937     23938     23939     23940     23939     23941     23940     23941
     23942     23943     23942     23944     23943     23944     23945     23946
     23945     23947     23946     23947     23948     23949     23948     23950
     23949     23950     23951     23952     23951     23953     23952     23953
     23954     23955     23954     23956     23955     23956     23957     23958
     23957     23959     23958     23959     23960     23961     23960     23962
     23961     23962     23963     23964     23963     23965     23964     23965
     23966     23967     23966     23968     23967     23968     23969     23970
     23969     23971     23970     23971     23972     23973     23972     23974
     23973     23974     23975     23976     23975     23977     23976     23977
     23978     23979     23978     23980     23979     23980     23981     23982
     23981     23983     23982     23983     23984     23985     23984     23986
     23985     23986     23987     23988     23987     23989     23988     23989
     23990     23991     23990     23992     23991     23992     23993     23994
     23993     23995     23994     23995     23996     23997     23996     23998
     23997     23998     23999     24000     23999     24001     24000     24001
     24002     24003     24002     24004     24003     24004     24005     24006
     24005     24007     24006     24007     24008     24009     24008     24010
     24009     24010     24011     24012     24011     24013     24012     24013
     24014     24015     24014     24016     24015     24016     24017     24018
     24017     24019     24018     24019     24020     24021     24020     24022
     24021     24022     24023     24024     24023     24025     24024     24025
     24026     24027     24026     24028     24027     24028     24029     24030
     24029     24031     24030     24031     24032     24033     24032     24034
     24033     24034     24035     24036     24035     24037     24036     24037
     24038     24039     24038     24040     24039     24040     24041     24042
     24041     24043     24042     24043     24044     24045     24044     24046
     24045     24046     24047     24048     24047     24049     24048     24049
     24050     24051     24050     24052     24051     24052     24053     24054
     24053     24055     24054     24055     24056     24057     24056     24058
     24057     24058     24059     24060     24059     24061     24060     24061
     24062     24063     24062     24064     24063     24064     24065     24066
     24065     24067     24066     24067     24068     24069     24068     24070
     24069     24070     24071     24072     24071     24073     24072     24073
     24074     24075     24074     24076     24075     24076     24077     24078
     24077     24079     24078     24079     24080     24081     24080     24082
     24081     24082     24083     24084     24083     24085     24084     24085
     24086     24087     24086     24088     24087     24088     24089     24090
     24089     24091     24090     24091     24092     24093     24092     24094
     24093     24094     24095     24096     24095     24097     24096     24097
     24098     24099     24098     24100     24099     24100     24101     24102
     24101     24103     24102     24103     24104     24105     24104     24106
     24105     24106     24107     24108     24107     24109     24108     24109
     24110     24111     24110     24112     24111     24112     24113     24114
     24113     24115     24114     24115     24116     24117     24116     24118
     24117     24118     24119     24120     24119     24121     24120     24121
     24122     24123     24122     24124     24123     24124     24125     24126
     24125     24127     24126     24127     24128     24129     24128     24130
     24129     24130     24131     24132     24131     24133     24132     24133
     24134     24135     24134     24136     24135     24136     24137     24138
     24137     24139     24138     24139     24140     24141     24140     24142
     24141     24142     24143     24144     24143     24145     24144     24145
     24146     24147     24146     24148     24147     24148     24149     24150
     24149     24151     24150     24151     24152     24153     24152     24154
     24153     24154     24155     24156     24155     24157     24156     24157
     24158     24159     24158     24160     24159     24160     24161     24162
     24161     24163     24162     24163     24164     24165     24164     24166
     24165     24166     24167     24168     24167     24169     24168     24169
     24170     24171     24170     24172     24171     24172     24173     24174
     24173     24175     24174     24175     24176     24177     24176     24178
     24177     24178     24179     24180     24179     24181     24180     24181
     24182     24183     24182     24184     24183     24184     24185     24186
     24185     24187     24186     24187     24188     24189     24188     24190
     24189     24190     24191     24192     24191     24193     24192     24193
     24194     24195     24194     24196     24195     24196     24197     24198
     24197     24199     24198     24199     24200     24201     24200     24202
     24201     24202     24203     24204     24203     24205     24204     24205
     24206     24207     24206     24208     24207     24208     24209     24210
     24209     24211     24210     24211     24212     24213     24212     24214
     24213     24214     24215     24216     24215     24217     24216     24217
     24218     24219     24218     24220     24219     24220     24221     24222
     24221     24223     24222     24223     24224     24225     24224     24226
     24225     24226     24227     24228     24227     24229     24228     24229
     24230     24231     24230     24232     24231     24232     24233     24234
     24233     24235     24234     24235     24236     24237     24236     24238
     24237     24238     24239     24240     24239     24241     24240     24241
     24242     24243     24242     24244     24243     24244     24245     24246
     24245     24247     24246     24247     24248     24249     24248     24250
     24249     24250     24251     24252     24251     24253     24252     24253
     24254     24255     24254     24256     24255     24256     24257     24258
     24257     24259     24258     24259     24260     24261     24260     24262
     24261     24262     24263     24264     24263     24265     24264     24265
     24266     24267     24266     24268     24267     24268     24269     24270
     24269     24271     24270     24271     24272     24273     24272     24274
     24273     24274     24275     24276     24275     24277     24276     24277
     24278     24279     24278     24280     24279     24280     24281     24282
     24281     24283     24282     24283     24284     24285     24284     24286
     24285     24286     24287     24288     24287     24289     24288     24289
     24290     24291     24290     24292     24291     24292     24293     24294
     24293     24295     24294     24295     24296     24297     24296     24298
     24297     24298     24299     24300     24299     24301     24300     24301
     24302     24303     24302     24304     24303     24304     24305     24306
     24305     24307     24306     24307     24308     24309     24308     24310
     24309     24310     24311     24312     24311     24313     24312     24313
     24314     24315     24314     24316     24315     24316     24317     24318
     24317     24319     24318     24319     24320     24321     24320     24322
     24321     24322     24323     24324     24323     24325     24324     24325
     24326     24327     24326     24328     24327     24328     24329     24330
     24329     24331     24330     24331     24332     24333     24332     24334
     24333     24334     24335     24336     24335     24337     24336     24337
     24338     24339     24338     24340     24339     24340     24341     24342
     24341     24343     24342     24343     24344     24345     24344     24346
     24345     24346     24347     24348     24347     24349     24348     24349
     24350     24351     24350     24352     24351     24352     24353     24354
     24353     24355     24354     24355     24356     24357     24356     24358
     24357     24358     24359     24360     24359     24361     24360     24361
     24362     24363     24362     24364     24363     24364     24365     24366
     24365     24367     24366     24367     24368     24369     24368     24370
     24369     24370     24371     24372     24371     24373     24372     24373
     24374     24375     24374     24376     24375     24376     24377     24378
     24377     24379     24378     24379     24380     24381     24380     24382
     24381     24382     24383     24384     24383     24385     24384     24385
     24386     24387     24386     24388     24387     24388     24389     24390
     24389     24391     24390     24391     24392     24393     24392     24394
     24393     24394     24395     24396     24395     24397     24396     24397
     24398     24399     24398     24400     24399     24400     24401     24402
     24401     24403     24402     24403     24404     24405     24404     24406
     24405     24406     24407     24408     24407     24409     24408     24409
     24410     24411     24410     24412     24411     24412     24413     24414
     24413     24415     24414     24415     24416     24417     24416     24418
     24417     24418     24419     24420     24419     24421     24420     24421
     24422     24423     24422     24424     24423     24424     24425     24426
     24425     24427     24426     24427     24428     24429     24428     24430
     24429     24430     24431     24432     24431     24433     24432     24433
     24434     24435     24434     24436     24435     24436     24437     24438
     24437     24439     24438     24439     24440     24441     24440     24442
     24441     24442     24443     24444     24443     24445     24444     24445
     24446     24447     24446     24448     24447     24448     24449     24450
     24449     24451     24450     24451     24452     24453     24452     24454
     24453     24454     24455     24456     24455     24457     24456     24457
     24458     24459     24458     24460     24459     24460     24461     24462
     24461     24463     24462     24463     24464     24465     24464     24466
     24465     24466     24467     24468     24467     24469     24468     24469
     24470     24471     24470     24472     24471     24472     24473     24474
     24473     24475     24474     24475     24476     24477     24476     24478
     24477     24478     24479     24480     24479     24481     24480     24481
     24482     24483     24482     24484     24483     24484     24485     24486
     24485     24487     24486     24487     24488     24489     24488     24490
     24489     24490     24491     24492     24491     24493     24492     24493
     24494     24495     24494     24496     24495     24496     24497     24498
     24497     24499     24498     24499     24500     24501     24500     24502
     24501     24502     24503     24504     24503     24505     24504     24505
     24506     24507     24506     24508     24507     24508     24509     24510
     24509     24511     24510     24511     24512     24513     24512     24514
     24513     24514     24515     24516     24515     24517     24516     24517
     24518     24519     24518     24520     24519     24520     24521     24522
     24521     24523     24522     24523     24524     24525     24524     24526
     24525     24526     24527     24528     24527     24529     24528     24529
     24530     24531     24530     24532     24531     24532     24533     24534
     24533     24535     24534     24535     24536     24537     24536     24538
     24537     24538     24539     24540     24539     24541     24540     24541
     24542     24543     24542     24544     24543     24544     24545     24546
     24545     24547     24546     24547     24548     24549     24548     24550
     24549     24550     24551     24552     24551     24553     24552     24553
     24554     24555     24554     24556     24555     24556     24557     24558
     24557     24559     24558     24559     24560     24561     24560     24562
     24561     24562     24563     24564     24563     24565     24564     24565
     24566     24567     24566     24568     24567     24568     24569     24570
     24569     24571     24570     24571     24572     24573     24572     24574
     24573     24574     24575     24576     24575     24577     24576     24577
     24578     24579     24578     24580     24579     24580     24581     24582
     24581     24583     24582     24583     24584     24585     24584     24586
     24585     24586     24587     24588     24587     24589     24588     24589
     24590     24591     24590     24592     24591     24592     24593     24594
     24593     24595     24594     24595     24596     24597     24596     24598
     24597     24598     24599     24600     24599     24601     24600     24601
     24602     24603     24602     24604     24603     24604     24605     24606
     24605     24607     24606     24607     24608     24609     24608     24610
     24609     24610     24611     24612     24611     24613     24612     24613
     24614     24615     24614     24616     24615     24616     24617     24618
     24617     24619     24618     24619     24620     24621     24620     24622
     24621     24622     24623     24624     24623     24625     24624     24625
     24626     24627     24626     24628     24627     24628     24629     24630
     24629     24631     24630     24631     24632     24633     24632     24634
     24633     24634     24635     24636     24635     24637     24636     24637
     24638     24639     24638     24640     24639     24640     24641     24642
     24641     24643     24642     24643     24644     24645     24644     24646
     24645     24646     24647     24648     24647     24649     24648     24649
     24650     24651     24650     24652     24651     24652     24653     24654
     24653     24655     24654     24655     24656     24657     24656     24658
     24657     24658     24659     24660     24659     24661     24660     24661
     24662     24663     24662     24664     24663     24664     24665     24666
     24665     24667     24666     24667     24668     24669     24668     24670
     24669     24670     24671     24672     24671     24673     24672     24673
     24674     24675     24674     24676     24675     24676     24677     24678
     24677     24679     24678     24679     24680     24681     24680     24682
     24681     24682     24683     24684     24683     24685     24684     24685
     24686     24687     24686     24688     24687     24688     24689     24690
     24689     24691     24690     24691     24692     24693     24692     24694
     24693     24694     24695     24696     24695     24697     24696     24697
     24698     24699     24698     24700     24699     24700     24701     24702
     24701     24703     24702     24703     24704     24705     24704     24706
     24705     24706     24707     24708     24707     24709     24708     24709
     24710     24711     24710     24712     24711     24712     24713     24714
     24713     24715     24714     24715     24716     24717     24716     24718
     24717     24718     24719     24720     24719     24721     24720     24721
     24722     24723     24722     24724     24723     24724     24725     24726
     24725     24727     24726     24727     24728     24729     24728     24730
     24729     24730     24731     24732     24731     24733     24732     24733
     24734     24735     24734     24736     24735     24736     24737     24738
     24737     24739     24738     24739     24740     24741     24740     24742
     24741     24742     24743     24744     24743     24745     24744     24745
     24746     24747     24746     24748     24747     24748     24749     24750
     24749     24751     24750     24751     24752     24753     24752     24754
     24753     24754     24755     24756     24755     24757     24756     24757
     24758     24759     24758     24760     24759     24760     24761     24762
     24761     24763     24762     24763     24764     24765     24764     24766
     24765     24766     24767     24768     24767     24769     24768     24769
     24770     24771     24770     24772     24771     24772     24773     24774
     24773     24775     24774     24775     24776     24777     24776     24778
     24777     24778     24779     24780     24779     24781     24780     24781
     24782     24783     24782     24784     24783     24784     24785     24786
     24785     24787     24786     24787     24788     24789     24788     24790
     24789     24790     24791     24792     24791     24793     24792     24793
     24794     24795     24794     24796     24795     24796     24797     24798
     24797     24799     24798     24799     24800     24801     24800     24802
     24801     24802     24803     24804     24803     24805     24804     24805
     24806     24807     24806     24808     24807     24808     24809     24810
     24809     24811     24810     24811     24812     24813     24812     24814
     24813     24814     24815     24816     24815     24817     24816     24817
     24818     24819     24818     24820     24819     24820     24821     24822
     24821     24823     24822     24823     24824     24825     24824     24826
     24825     24826     24827     24828     24827     24829     24828     24829
     24830     24831     24830     24832     24831     24832     24833     24834
     24833     24835     24834     24835     24836     24837     24836     24838
     24837     24838     24839     24840     24839     24841     24840     24841
     24842     24843     24842     24844     24843     24844     24845     24846
     24845     24847     24846     24847     24848     24849     24848     24850
     24849     24850     24851     24852     24851     24853     24852     24853
     24854     24855     24854     24856     24855     24856     24857     24858
     24857     24859     24858     24859     24860     24861     24860     24862
     24861     24862     24863     24864     24863     24865     24864     24865
     24866     24867     24866     24868     24867     24868     24869     24870
     24869     24871     24870     24871     24872     24873     24872     24874
     24873     24874     24875     24876     24875     24877     24876     24877
     24878     24879     24878     24880     24879     24880     24881     24882
     24881     24883     24882     24883     24884     24885     24884     24886
     24885     24886     24887     24888     24887     24889     24888     24889
     24890     24891     24890     24892     24891     24892     24893     24894
     24893     24895     24894     24895     24896     24897     24896     24898
     24897     24898     24899     24900     24899     24901     24900     24901
     24902     24903     24902     24904     24903     24904     24905     24906
     24905     24907     24906     24907     24908     24909     24908     24910
     24909     24910     24911     24912     24911     24913     24912     24913
     24914     24915     24914     24916     24915     24916     24917     24918
     24917     24919     24918     24919     24920     24921     24920     24922
     24921     24922     24923     24924     24923     24925     24924     24925
     24926     24927     24926     24928     24927     24928     24929     24930
     24929     24931     24930     24931     24932     24933     24932     24934
     24933     24934     24935     24936     24935     24937     24936     24937
     24938     24939     24938     24940     24939     24940     24941     24942
     24941     24943     24942     24943     24944     24945     24944     24946
     24945     24946     24947     24948     24947     24949     24948     24949
     24950     24951     24950     24952     24951     24952     24953     24954
     24953     24955     24954     24955     24956     24957     24956     24958
     24957     24958     24959     24960     24959     24961     24960     24961
     24962     24963     24962     24964     24963     24964     24965     24966
     24965     24967     24966     24967     24968     24969     24968     24970
     24969     24970     24971     24972     24971     24973     24972     24973
     24974     24975     24974     24976     24975     24976     24977     24978
     24977     24979     24978     24979     24980     24981     24980     24982
     24981     24982     24983     24984     24983     24985     24984     24985
     24986     24987     24986     24988     24987     24988     24989     24990
     24989     24991     24990     24991     24992     24993     24992     24994
     24993     24994     24995     24996     24995     24997     24996     24997
     24998     24999     24998     25000     24999     25000     25001     25002
     25001     25003     25002     25003     25004     25005     25004     25006
     25005     25006     25007     25008     25007     25009     25008     25009
     25010     25011     25010     25012     25011     25012     25013     25014
     25013     25015     25014     25015     25016     25017     25016     25018
     25017     25018     25019     25020     25019     25021     25020     25021
     25022     25023     25022     25024     25023     25024     25025     25026
     25025     25027     25026     25027     25028     25029     25028     25030
     25029     25030     25031     25032     25031     25033     25032     25033
     25034     25035     25034     25036     25035     25036     25037     25038
     25037     25039     25038     25039     25040     25041     25040     25042
     25041     25042     25043     25044     25043     25045     25044     25045
     25046     25047     25046     25048     25047     25048     25049     25050
     25049     25051     25050     25051     25052     25053     25052     25054
     25053     25054     25055     25056     25055     25057     25056     25057
     25058     25059     25058     25060     25059     25060     25061     25062
     25061     25063     25062     25063     25064     25065     25064     25066
     25065     25066     25067     25068     25067     25069     25068     25069
     25070     25071     25070     25072     25071     25072     25073     25074
     25073     25075     25074     25075     25076     25077     25076     25078
     25077     25078     25079     25080     25079     25081     25080     25081
     25082     25083     25082     25084     25083     25084     25085     25086
     25085     25087     25086     25087     25088     25089     25088     25090
     25089     25090     25091     25092     25091     25093     25092     25093
     25094     25095     25094     25096     25095     25096     25097     25098
     25097     25099     25098     25099     25100     25101     25100     25102
     25101     25102     25103     25104     25103     25105     25104     25105
     25106     25107     25106     25108     25107     25108     25109     25110
     25109     25111     25110     25111     25112     25113     25112     25114
     25113     25114     25115     25116     25115     25117     25116     25117
     25118     25119     25118     25120     25119     25120     25121     25122
     25121     25123     25122     25123     25124     25125     25124     25126
     25125     25126     25127     25128     25127     25129     25128     25129
     25130     25131     25130     25132     25131     25132     25133     25134
     25133     25135     25134     25135     25136     25137     25136     25138
     25137     25138     25139     25140     25139     25141     25140     25141
     25142     25143     25142     25144     25143     25144     25145     25146
     25145     25147     25146     25147     25148     25149     25148     25150
     25149     25150     25151     25152     25151     25153     25152     25153
     25154     25155     25154     25156     25155     25156     25157     25158
     25157     25159     25158     25159     25160     25161     25160     25162
     25161     25162     25163     25164     25163     25165     25164     25165
     25166     25167     25166     25168     25167     25168     25169     25170
     25169     25171     25170     25171     25172     25173     25172     25174
     25173     25174     25175     25176     25175     25177     25176     25177
     25178     25179     25178     25180     25179     25180     25181     25182
     25181     25183     25182     25183     25184     25185     25184     25186
     25185     25186     25187     25188     25187     25189     25188     25189
     25190     25191     25190     25192     25191     25192     25193     25194
     25193     25195     25194     25195     25196     25197     25196     25198
     25197     25198     25199     25200     25199     25201     25200     25201
     25202     25203     25202     25204     25203     25204     25205     25206
     25205     25207     25206     25207     25208     25209     25208     25210
     25209     25210     25211     25212     25211     25213     25212     25213
     25214     25215     25214     25216     25215     25216     25217     25218
     25217     25219     25218     25219     25220     25221     25220     25222
     25221     25222     25223     25224     25223     25225     25224     25225
     25226     25227     25226     25228     25227     25228     25229     25230
     25229     25231     25230     25231     25232     25233     25232     25234
     25233     25234     25235     25236     25235     25237     25236     25237
     25238     25239     25238     25240     25239     25240     25241     25242
     25241     25243     25242     25243     25244     25245     25244     25246
     25245     25246     25247     25248     25247     25249     25248     25249
     25250     25251     25250     25252     25251     25252     25253     25254
     25253     25255     25254     25255     25256     25257     25256     25258
     25257     25258     25259     25260     25259     25261     25260     25261
     25262     25263     25262     25264     25263     25264     25265     25266
     25265     25267     25266     25267     25268     25269     25268     25270
     25269     25270     25271     25272     25271     25273     25272     25273
     25274     25275     25274     25276     25275     25276     25277     25278
     25277     25279     25278     25279     25280     25281     25280     25282
     25281     25282     25283     25284     25283     25285     25284     25285
     25286     25287     25286     25288     25287     25288     25289     25290
     25289     25291     25290     25291     25292     25293     25292     25294
     25293     25294     25295     25296     25295     25297     25296     25297
     25298     25299     25298     25300     25299     25300     25301     25302
     25301     25303     25302     25303     25304     25305     25304     25306
     25305     25306     25307     25308     25307     25309     25308     25309
     25310     25311     25310     25312     25311     25312     25313     25314
     25313     25315     25314     25315     25316     25317     25316     25318
     25317     25318     25319     25320     25319     25321     25320     25321
     25322     25323     25322     25324     25323     25324     25325     25326
     25325     25327     25326     25327     25328     25329     25328     25330
     25329     25330     25331     25332     25331     25333     25332     25333
     25334     25335     25334     25336     25335     25336     25337     25338
     25337     25339     25338     25339     25340     25341     25340     25342
     25341     25342     25343     25344     25343     25345     25344     25345
     25346     25347     25346     25348     25347     25348     25349     25350
     25349     25351     25350     25351     25352     25353     25352     25354
     25353     25354     25355     25356     25355     25357     25356     25357
     25358     25359     25358     25360     25359     25360     25361     25362
     25361     25363     25362     25363     25364     25365     25364     25366
     25365     25366     25367     25368     25367     25369     25368     25369
     25370     25371     25370     25372     25371     25372     25373     25374
     25373     25375     25374     25375     25376     25377     25376     25378
     25377     25378     25379     25380     25379     25381     25380     25381
     25382     25383     25382     25384     25383     25384     25385     25386
     25385     25387     25386     25387     25388     25389     25388     25390
     25389     25390     25391     25392     25391     25393     25392     25393
     25394     25395     25394     25396     25395     25396     25397     25398
     25397     25399     25398     25399     25400     25401     25400     25402
     25401     25402     25403     25404     25403     25405     25404     25405
     25406     25407     25406     25408     25407     25408     25409     25410
     25409     25411     25410     25411     25412     25413     25412     25414
     25413     25414     25415     25416     25415     25417     25416     25417
     25418     25419     25418     25420     25419     25420     25421     25422
     25421     25423     25422     25423     25424     25425     25424     25426
     25425     25426     25427     25428     25427     25429     25428     25429
     25430     25431     25430     25432     25431     25432     25433     25434
     25433     25435     25434     25435     25436     25437     25436     25438
     25437     25438     25439     25440     25439     25441     25440     25441
     25442     25443     25442     25444     25443     25444     25445     25446
     25445     25447     25446     25447     25448     25449     25448     25450
     25449     25450     25451     25452     25451     25453     25452     25453
     25454     25455     25454     25456     25455     25456     25457     25458
     25457     25459     25458     25459     25460     25461     25460     25462
     25461     25462     25463     25464     25463     25465     25464     25465
     25466     25467     25466     25468     25467     25468     25469     25470
     25469     25471     25470     25471     25472     25473     25472     25474
     25473     25474     25475     25476     25475     25477     25476     25477
     25478     25479     25478     25480     25479     25480     25481     25482
     25481     25483     25482     25483     25484     25485     25484     25486
     25485     25486     25487     25488     25487     25489     25488     25489
     25490     25491     25490     25492     25491     25492     25493     25494
     25493     25495     25494     25495     25496     25497     25496     25498
     25497     25498     25499     25500     25499     25501     25500     25501
     25502     25503     25502     25504     25503     25504     25505     25506
     25505     25507     25506     25507     25508     25509     25508     25510
     25509     25510     25511     25512     25511     25513     25512     25513
     25514     25515     25514     25516     25515     25516     25517     25518
     25517     25519     25518     25519     25520     25521     25520     25522
     25521     25522     25523     25524     25523     25525     25524     25525
     25526     25527     25526     25528     25527     25528     25529     25530
     25529     25531     25530     25531     25532     25533     25532     25534
     25533     25534     25535     25536     25535     25537     25536     25537
     25538     25539     25538     25540     25539     25540     25541     25542
     25541     25543     25542     25543     25544     25545     25544     25546
     25545     25546     25547     25548     25547     25549     25548     25549
     25550     25551     25550     25552     25551     25552     25553     25554
     25553     25555     25554     25555     25556     25557     25556     25558
     25557     25558     25559     25560     25559     25561     25560     25561
     25562     25563     25562     25564     25563     25564     25565     25566
     25565     25567     25566     25567     25568     25569     25568     25570
     25569     25570     25571     25572     25571     25573     25572     25573
     25574     25575     25574     25576     25575     25576     25577     25578
     25577     25579     25578     25579     25580     25581     25580     25582
     25581     25582     25583     25584     25583     25585     25584     25585
     25586     25587     25586     25588     25587     25588     25589     25590
     25589     25591     25590     25591     25592     25593     25592     25594
     25593     25594     25595     25596     25595     25597     25596     25597
     25598     25599     25598     25600     25599     25600     25601     25602
     25601     25603     25602     25603     25604     25605     25604     25606
     25605     25606     25607     25608     25607     25609     25608     25609
     25610     25611     25610     25612     25611     25612     25613     25614
     25613     25615     25614     25615     25616     25617     25616     25618
     25617     25618     25619     25620     25619     25621     25620     25621
     25622     25623     25622     25624     25623     25624     25625     25626
     25625     25627     25626     25627     25628     25629     25628     25630
     25629     25630     25631     25632     25631     25633     25632     25633
     25634     25635     25634     25636     25635     25636     25637     25638
     25637     25639     25638     25639     25640     25641     25640     25642
     25641     25642     25643     25644     25643     25645     25644     25645
     25646     25647     25646     25648     25647     25648     25649     25650
     25649     25651     25650     25651     25652     25653     25652     25654
     25653     25654     25655     25656     25655     25657     25656     25657
     25658     25659     25658     25660     25659     25660     25661     25662
     25661     25663     25662     25663     25664     25665     25664     25666
     25665     25666     25667     25668     25667     25669     25668     25669
     25670     25671     25670     25672     25671     25672     25673     25674
     25673     25675     25674     25675     25676     25677     25676     25678
     25677     25678     25679     25680     25679     25681     25680     25681
     25682     25683     25682     25684     25683     25684     25685     25686
     25685     25687     25686     25687     25688     25689     25688     25690
     25689     25690     25691     25692     25691     25693     25692     25693
     25694     25695     25694     25696     25695     25696     25697     25698
     25697     25699     25698     25699     25700     25701     25700     25702
     25701     25702     25703     25704     25703     25705     25704     25705
     25706     25707     25706     25708     25707     25708     25709     25710
     25709     25711     25710     25711     25712     25713     25712     25714
     25713     25714     25715     25716     25715     25717     25716     25717
     25718     25719     25718     25720     25719     25720     25721     25722
     25721     25723     25722     25723     25724     25725     25724     25726
     25725     25726     25727     25728     25727     25729     25728     25729
     25730     25731     25730     25732     25731     25732     25733     25734
     25733     25735     25734     25735     25736     25737     25736     25738
     25737     25738     25739     25740     25739     25741     25740     25741
     25742     25743     25742     25744     25743     25744     25745     25746
     25745     25747     25746     25747     25748     25749     25748     25750
     25749     25750     25751     25752     25751     25753     25752     25753
     25754     25755     25754     25756     25755     25756     25757     25758
     25757     25759     25758     25759     25760     25761     25760     25762
     25761     25762     25763     25764     25763     25765     25764     25765
     25766     25767     25766     25768     25767     25768     25769     25770
     25769     25771     25770     25771     25772     25773     25772     25774
     25773     25774     25775     25776     25775     25777     25776     25777
     25778     25779     25778     25780     25779     25780     25781     25782
     25781     25783     25782     25783     25784     25785     25784     25786
     25785     25786     25787     25788     25787     25789     25788     25789
     25790     25791     25790     25792     25791     25792     25793     25794
     25793     25795     25794     25795     25796     25797     25796     25798
     25797     25798     25799     25800     25799     25801     25800     25801
     25802     25803     25802     25804     25803     25804     25805     25806
     25805     25807     25806     25807     25808     25809     25808     25810
     25809     25810     25811     25812     25811     25813     25812     25813
     25814     25815     25814     25816     25815     25816     25817     25818
     25817     25819     25818     25819     25820     25821     25820     25822
     25821     25822     25823     25824     25823     25825     25824     25825
     25826     25827     25826     25828     25827     25828     25829     25830
     25829     25831     25830     25831     25832     25833     25832     25834
     25833     25834     25835     25836     25835     25837     25836     25837
     25838     25839     25838     25840     25839     25840     25841     25842
     25841     25843     25842     25843     25844     25845     25844     25846
     25845     25846     25847     25848     25847     25849     25848     25849
     25850     25851     25850     25852     25851     25852     25853     25854
     25853     25855     25854     25855     25856     25857     25856     25858
     25857     25858     25859     25860     25859     25861     25860     25861
     25862     25863     25862     25864     25863     25864     25865     25866
     25865     25867     25866     25867     25868     25869     25868     25870
     25869     25870     25871     25872     25871     25873     25872     25873
     25874     25875     25874     25876     25875     25876     25877     25878
     25877     25879     25878     25879     25880     25881     25880     25882
     25881     25882     25883     25884     25883     25885     25884     25885
     25886     25887     25886     25888     25887     25888     25889     25890
     25889     25891     25890     25891     25892     25893     25892     25894
     25893     25894     25895     25896     25895     25897     25896     25897
     25898     25899     25898     25900     25899     25900     25901     25902
     25901     25903     25902     25903     25904     25905     25904     25906
     25905     25906     25907     25908     25907     25909     25908     25909
     25910     25911     25910     25912     25911     25912     25913     25914
     25913     25915     25914     25915     25916     25917     25916     25918
     25917     25918     25919     25920     25919     25921     25920     25921
     25922     25923     25922     25924     25923     25924     25925     25926
     25925     25927     25926     25927     25928     25929     25928     25930
     25929     25930     25931     25932     25931     25933     25932     25933
     25934     25935     25934     25936     25935     25936     25937     25938
     25937     25939     25938     25939     25940     25941     25940     25942
     25941     25942     25943     25944     25943     25945     25944     25945
     25946     25947     25946     25948     25947     25948     25949     25950
     25949     25951     25950     25951     25952     25953     25952     25954
     25953     25954     25955     25956     25955     25957     25956     25957
     25958     25959     25958     25960     25959     25960     25961     25962
     25961     25963     25962     25963     25964     25965     25964     25966
     25965     25966     25967     25968     25967     25969     25968     25969
     25970     25971     25970     25972     25971     25972     25973     25974
     25973     25975     25974     25975     25976     25977     25976     25978
     25977     25978     25979     25980     25979     25981     25980     25981
     25982     25983     25982     25984     25983     25984     25985     25986
     25985     25987     25986     25987     25988     25989     25988     25990
     25989     25990     25991     25992     25991     25993     25992     25993
     25994     25995     25994     25996     25995     25996     25997     25998
     25997     25999     25998     25999     26000     26001     26000     26002
     26001     26002     26003     26004     26003     26005     26004     26005
     26006     26007     26006     26008     26007     26008     26009     26010
     26009     26011     26010     26011     26012     26013     26012     26014
     26013     26014     26015     26016     26015     26017     26016     26017
     26018     26019     26018     26020     26019     26020     26021     26022
     26021     26023     26022     26023     26024     26025     26024     26026
     26025     26026     26027     26028     26027     26029     26028     26029
     26030     26031     26030     26032     26031     26032     26033     26034
     26033     26035     26034     26035     26036     26037     26036     26038
     26037     26038     26039     26040     26039     26041     26040     26041
     26042     26043     26042     26044     26043     26044     26045     26046
     26045     26047     26046     26047     26048     26049     26048     26050
     26049     26050     26051     26052     26051     26053     26052     26053
     26054     26055     26054     26056     26055     26056     26057     26058
     26057     26059     26058     26059     26060     26061     26060     26062
     26061     26062     26063     26064     26063     26065     26064     26065
     26066     26067     26066     26068     26067     26068     26069     26070
     26069     26071     26070     26071     26072     26073     26072     26074
     26073     26074     26075     26076     26075     26077     26076     26077
     26078     26079     26078     26080     26079     26080     26081     26082
     26081     26083     26082     26083     26084     26085     26084     26086
     26085     26086     26087     26088     26087     26089     26088     26089
     26090     26091     26090     26092     26091     26092     26093     26094
     26093     26095     26094     26095     26096     26097     26096     26098
     26097     26098     26099     26100     26099     26101     26100     26101
     26102     26103     26102     26104     26103     26104     26105     26106
     26105     26107     26106     26107     26108     26109     26108     26110
     26109     26110     26111     26112     26111     26113     26112     26113
     26114     26115     26114     26116     26115     26116     26117     26118
     26117     26119     26118     26119     26120     26121     26120     26122
     26121     26122     26123     26124     26123     26125     26124     26125
     26126     26127     26126     26128     26127     26128     26129     26130
     26129     26131     26130     26131     26132     26133     26132     26134
     26133     26134     26135     26136     26135     26137     26136     26137
     26138     26139     26138     26140     26139     26140     26141     26142
     26141     26143     26142     26143     26144     26145     26144     26146
     26145     26146     26147     26148     26147     26149     26148     26149
     26150     26151     26150     26152     26151     26152     26153     26154
     26153     26155     26154     26155     26156     26157     26156     26158
     26157     26158     26159     26160     26159     26161     26160     26161
     26162     26163     26162     26164     26163     26164     26165     26166
     26165     26167     26166     26167     26168     26169     26168     26170
     26169     26170     26171     26172     26171     26173     26172     26173
     26174     26175     26174     26176     26175     26176     26177     26178
     26177     26179     26178     26179     26180     26181     26180     26182
     26181     26182     26183     26184     26183     26185     26184     26185
     26186     26187     26186     26188     26187     26188     26189     26190
     26189     26191     26190     26191     26192     26193     26192     26194
     26193     26194     26195     26196     26195     26197     26196     26197
     26198     26199     26198     26200     26199     26200     26201     26202
     26201     26203     26202     26203     26204     26205     26204     26206
     26205     26206     26207     26208     26207     26209     26208     26209
     26210     26211     26210     26212     26211     26212     26213     26214
     26213     26215     26214     26215     26216     26217     26216     26218
     26217     26218     26219     26220     26219     26221     26220     26221
     26222     26223     26222     26224     26223     26224     26225     26226
     26225     26227     26226     26227     26228     26229     26228     26230
     26229     26230     26231     26232     26231     26233     26232     26233
     26234     26235     26234     26236     26235     26236     26237     26238
     26237     26239     26238     26239     26240     26241     26240     26242
     26241     26242     26243     26244     26243     26245     26244     26245
     26246     26247     26246     26248     26247     26248     26249     26250
     26249     26251     26250     26251     26252     26253     26252     26254
     26253     26254     26255     26256     26255     26257     26256     26257
     26258     26259     26258     26260     26259     26260     26261     26262
     26261     26263     26262     26263     26264     26265     26264     26266
     26265     26266     26267     26268     26267     26269     26268     26269
     26270     26271     26270     26272     26271     26272     26273     26274
     26273     26275     26274     26275     26276     26277     26276     26278
     26277     26278     26279     26280     26279     26281     26280     26281
     26282     26283     26282     26284     26283     26284     26285     26286
     26285     26287     26286     26287     26288     26289     26288     26290
     26289     26290     26291     26292     26291     26293     26292     26293
     26294     26295     26294     26296     26295     26296     26297     26298
     26297     26299     26298     26299     26300     26301     26300     26302
     26301     26302     26303     26304     26303     26305     26304     26305
     26306     26307     26306     26308     26307     26308     26309     26310
     26309     26311     26310     26311     26312     26313     26312     26314
     26313     26314     26315     26316     26315     26317     26316     26317
     26318     26319     26318     26320     26319     26320     26321     26322
     26321     26323     26322     26323     26324     26325     26324     26326
     26325     26326     26327     26328     26327     26329     26328     26329
     26330     26331     26330     26332     26331     26332     26333     26334
     26333     26335     26334     26335     26336     26337     26336     26338
     26337     26338     26339     26340     26339     26341     26340     26341
     26342     26343     26342     26344     26343     26344     26345     26346
     26345     26347     26346     26347     26348     26349     26348     26350
     26349     26350     26351     26352     26351     26353     26352     26353
     26354     26355     26354     26356     26355     26356     26357     26358
     26357     26359     26358     26359     26360     26361     26360     26362
     26361     26362     26363     26364     26363     26365     26364     26365
     26366     26367     26366     26368     26367     26368     26369     26370
     26369     26371     26370     26371     26372     26373     26372     26374
     26373     26374     26375     26376     26375     26377     26376     26377
     26378     26379     26378     26380     26379     26380     26381     26382
     26381     26383     26382     26383     26384     26385     26384     26386
     26385     26386     26387     26388     26387     26389     26388     26389
     26390     26391     26390     26392     26391     26392     26393     26394
     26393     26395     26394     26395     26396     26397     26396     26398
     26397     26398     26399     26400     26399     26401     26400     26401
     26402     26403     26402     26404     26403     26404     26405     26406
     26405     26407     26406     26407     26408     26409     26408     26410
     26409     26410     26411     26412     26411     26413     26412     26413
     26414     26415     26414     26416     26415     26416     26417     26418
     26417     26419     26418     26419     26420     26421     26420     26422
     26421     26422     26423     26424     26423     26425     26424     26425
     26426     26427     26426     26428     26427     26428     26429     26430
     26429     26431     26430     26431     26432     26433     26432     26434
     26433     26434     26435     26436     26435     26437     26436     26437
     26438     26439     26438     26440     26439     26440     26441     26442
     26441     26443     26442     26443     26444     26445     26444     26446
     26445     26446     26447     26448     26447     26449     26448     26449
     26450     26451     26450     26452     26451     26452     26453     26454
     26453     26455     26454     26455     26456     26457     26456     26458
     26457     26458     26459     26460     26459     26461     26460     26461
     26462     26463     26462     26464     26463     26464     26465     26466
     26465     26467     26466     26467     26468     26469     26468     26470
     26469     26470     26471     26472     26471     26473     26472     26473
     26474     26475     26474     26476     26475     26476     26477     26478
     26477     26479     26478     26479     26480     26481     26480     26482
     26481     26482     26483     26484     26483     26485     26484     26485
     26486     26487     26486     26488     26487     26488     26489     26490
     26489     26491     26490     26491     26492     26493     26492     26494
     26493     26494     26495     26496     26495     26497     26496     26497
     26498     26499     26498     26500     26499     26500     26501     26502
     26501     26503     26502     26503     26504     26505     26504     26506
     26505     26506     26507     26508     26507     26509     26508     26509
     26510     26511     26510     26512     26511     26512     26513     26514
     26513     26515     26514     26515     26516     26517     26516     26518
     26517     26518     26519     26520     26519     26521     26520     26521
     26522     26523     26522     26524     26523     26524     26525     26526
     26525     26527     26526     26527     26528     26529     26528     26530
     26529     26530     26531     26532     26531     26533     26532     26533
     26534     26535     26534     26536     26535     26536     26537     26538
     26537     26539     26538     26539     26540     26541     26540     26542
     26541     26542     26543     26544     26543     26545     26544     26545
     26546     26547     26546     26548     26547     26548     26549     26550
     26549     26551     26550     26551     26552     26553     26552     26554
     26553     26554     26555     26556     26555     26557     26556     26557
     26558     26559     26558     26560     26559     26560     26561     26562
     26561     26563     26562     26563     26564     26565     26564     26566
     26565     26566     26567     26568     26567     26569     26568     26569
     26570     26571     26570     26572     26571     26572     26573     26574
     26573     26575     26574     26575     26576     26577     26576     26578
     26577     26578     26579     26580     26579     26581     26580     26581
     26582     26583     26582     26584     26583     26584     26585     26586
     26585     26587     26586     26587     26588     26589     26588     26590
     26589     26590     26591     26592     26591     26593     26592     26593
     26594     26595     26594     26596     26595     26596     26597     26598
     26597     26599     26598     26599     26600     26601     26600     26602
     26601     26602     26603     26604     26603     26605     26604     26605
     26606     26607     26606     26608     26607     26608     26609     26610
     26609     26611     26610     26611     26612     26613     26612     26614
     26613     26614     26615     26616     26615     26617     26616     26617
     26618     26619     26618     26620     26619     26620     26621     26622
     26621     26623     26622     26623     26624     26625     26624     26626
     26625     26626     26627     26628     26627     26629     26628     26629
     26630     26631     26630     26632     26631     26632     26633     26634
     26633     26635     26634     26635     26636     26637     26636     26638
     26637     26638     26639     26640     26639     26641     26640     26641
     26642     26643     26642     26644     26643     26644     26645     26646
     26645     26647     26646     26647     26648     26649     26648     26650
     26649     26650     26651     26652     26651     26653     26652     26653
     26654     26655     26654     26656     26655     26656     26657     26658
     26657     26659     26658     26659     26660     26661     26660     26662
     26661     26662     26663     26664     26663     26665     26664     26665
     26666     26667     26666     26668     26667     26668     26669     26670
     26669     26671     26670     26671     26672     26673     26672     26674
     26673     26674     26675     26676     26675     26677     26676     26677
     26678     26679     26678     26680     26679     26680     26681     26682
     26681     26683     26682     26683     26684     26685     26684     26686
     26685     26686     26687     26688     26687     26689     26688     26689
     26690     26691     26690     26692     26691     26692     26693     26694
     26693     26695     26694     26695     26696     26697     26696     26698
     26697     26698     26699     26700     26699     26701     26700     26701
     26702     26703     26702     26704     26703     26704     26705     26706
     26705     26707     26706     26707     26708     26709     26708     26710
     26709     26710     26711     26712     26711     26713     26712     26713
     26714     26715     26714     26716     26715     26716     26717     26718
     26717     26719     26718     26719     26720     26721     26720     26722
     26721     26722     26723     26724     26723     26725     26724     26725
     26726     26727     26726     26728     26727     26728     26729     26730
     26729     26731     26730     26731     26732     26733     26732     26734
     26733     26734     26735     26736     26735     26737     26736     26737
     26738     26739     26738     26740     26739     26740     26741     26742
     26741     26743     26742     26743     26744     26745     26744     26746
     26745     26746     26747     26748     26747     26749     26748     26749
     26750     26751     26750     26752     26751     26752     26753     26754
     26753     26755     26754     26755     26756     26757     26756     26758
     26757     26758     26759     26760     26759     26761     26760     26761
     26762     26763     26762     26764     26763     26764     26765     26766
     26765     26767     26766     26767     26768     26769     26768     26770
     26769     26770     26771     26772     26771     26773     26772     26773
     26774     26775     26774     26776     26775     26776     26777     26778
     26777     26779     26778     26779     26780     26781     26780     26782
     26781     26782     26783     26784     26783     26785     26784     26785
     26786     26787     26786     26788     26787     26788     26789     26790
     26789     26791     26790     26791     26792     26793     26792     26794
     26793     26794     26795     26796     26795     26797     26796     26797
     26798     26799     26798     26800     26799     26800     26801     26802
     26801     26803     26802     26803     26804     26805     26804     26806
     26805     26806     26807     26808     26807     26809     26808     26809
     26810     26811     26810     26812     26811     26812     26813     26814
     26813     26815     26814     26815     26816     26817     26816     26818
     26817     26818     26819     26820     26819     26821     26820     26821
     26822     26823     26822     26824     26823     26824     26825     26826
     26825     26827     26826     26827     26828     26829     26828     26830
     26829     26830     26831     26832     26831     26833     26832     26833
     26834     26835     26834     26836     26835     26836     26837     26838
     26837     26839     26838     26839     26840     26841     26840     26842
     26841     26842     26843     26844     26843     26845     26844     26845
     26846     26847     26846     26848     26847     26848     26849     26850
     26849     26851     26850     26851     26852     26853     26852     26854
     26853     26854     26855     26856     26855     26857     26856     26857
     26858     26859     26858     26860     26859     26860     26861     26862
     26861     26863     26862     26863     26864     26865     26864     26866
     26865     26866     26867     26868     26867     26869     26868     26869
     26870     26871     26870     26872     26871     26872     26873     26874
     26873     26875     26874     26875     26876     26877     26876     26878
     26877     26878     26879     26880     26879     26881     26880     26881
     26882     26883     26882     26884     26883     26884     26885     26886
     26885     26887     26886     26887     26888     26889     26888     26890
     26889     26890     26891     26892     26891     26893     26892     26893
     26894     26895     26894     26896     26895     26896     26897     26898
     26897     26899     26898     26899     26900     26901     26900     26902
     26901     26902     26903     26904     26903     26905     26904     26905
     26906     26907     26906     26908     26907     26908     26909     26910
     26909     26911     26910     26911     26912     26913     26912     26914
     26913     26914     26915     26916     26915     26917     26916     26917
     26918     26919     26918     26920     26919     26920     26921     26922
     26921     26923     26922     26923     26924     26925     26924     26926
     26925     26926     26927     26928     26927     26929     26928     26929
     26930     26931     26930     26932     26931     26932     26933     26934
     26933     26935     26934     26935     26936     26937     26936     26938
     26937     26938     26939     26940     26939     26941     26940     26941
     26942     26943     26942     26944     26943     26944     26945     26946
     26945     26947     26946     26947     26948     26949     26948     26950
     26949     26950     26951     26952     26951     26953     26952     26953
     26954     26955     26954     26956     26955     26956     26957     26958
     26957     26959     26958     26959     26960     26961     26960     26962
     26961     26962     26963     26964     26963     26965     26964     26965
     26966     26967     26966     26968     26967     26968     26969     26970
     26969     26971     26970     26971     26972     26973     26972     26974
     26973     26974     26975     26976     26975     26977     26976     26977
     26978     26979     26978     26980     26979     26980     26981     26982
     26981     26983     26982     26983     26984     26985     26984     26986
     26985     26986     26987     26988     26987     26989     26988     26989
     26990     26991     26990     26992     26991     26992     26993     26994
     26993     26995     26994     26995     26996     26997     26996     26998
     26997     26998     26999     27000     26999     27001     27000     27001
     27002     27003     27002     27004     27003     27004     27005     27006
     27005     27007     27006     27007     27008     27009     27008     27010
     27009     27010     27011     27012     27011     27013     27012     27013
     27014     27015     27014     27016     27015     27016     27017     27018
     27017     27019     27018     27019     27020     27021     27020     27022
     27021     27022     27023     27024     27023     27025     27024     27025
     27026     27027     27026     27028     27027     27028     27029     27030
     27029     27031     27030     27031     27032     27033     27032     27034
     27033     27034     27035     27036     27035     27037     27036     27037
     27038     27039     27038     27040     27039     27040     27041     27042
     27041     27043     27042     27043     27044     27045     27044     27046
     27045     27046     27047     27048     27047     27049     27048     27049
     27050     27051     27050     27052     27051     27052     27053     27054
     27053     27055     27054     27055     27056     27057     27056     27058
     27057     27058     27059     27060     27059     27061     27060     27061
     27062     27063     27062     27064     27063     27064     27065     27066
     27065     27067     27066     27067     27068     27069     27068     27070
     27069     27070     27071     27072     27071     27073     27072     27073
     27074     27075     27074     27076     27075     27076     27077     27078
     27077     27079     27078     27079     27080     27081     27080     27082
     27081     27082     27083     27084     27083     27085     27084     27085
     27086     27087     27086     27088     27087     27088     27089     27090
     27089     27091     27090     27091     27092     27093     27092     27094
     27093     27094     27095     27096     27095     27097     27096     27097
     27098     27099     27098     27100     27099     27100     27101     27102
     27101     27103     27102     27103     27104     27105     27104     27106
     27105     27106     27107     27108     27107     27109     27108     27109
     27110     27111     27110     27112     27111     27112     27113     27114
     27113     27115     27114     27115     27116     27117     27116     27118
     27117     27118     27119     27120     27119     27121     27120     27121
     27122     27123     27122     27124     27123     27124     27125     27126
     27125     27127     27126     27127     27128     27129     27128     27130
     27129     27130     27131     27132     27131     27133     27132     27133
     27134     27135     27134     27136     27135     27136     27137     27138
     27137     27139     27138     27139     27140     27141     27140     27142
     27141     27142     27143     27144     27143     27145     27144     27145
     27146     27147     27146     27148     27147     27148     27149     27150
     27149     27151     27150     27151     27152     27153     27152     27154
     27153     27154     27155     27156     27155     27157     27156     27157
     27158     27159     27158     27160     27159     27160     27161     27162
     27161     27163     27162     27163     27164     27165     27164     27166
     27165     27166     27167     27168     27167     27169     27168     27169
     27170     27171     27170     27172     27171     27172     27173     27174
     27173     27175     27174     27175     27176     27177     27176     27178
     27177     27178     27179     27180     27179     27181     27180     27181
     27182     27183     27182     27184     27183     27184     27185     27186
     27185     27187     27186     27187     27188     27189     27188     27190
     27189     27190     27191     27192     27191     27193     27192     27193
     27194     27195     27194     27196     27195     27196     27197     27198
     27197     27199     27198     27199     27200     27201     27200     27202
     27201     27202     27203     27204     27203     27205     27204     27205
     27206     27207     27206     27208     27207     27208     27209     27210
     27209     27211     27210     27211     27212     27213     27212     27214
     27213     27214     27215     27216     27215     27217     27216     27217
     27218     27219     27218     27220     27219     27220     27221     27222
     27221     27223     27222     27223     27224     27225     27224     27226
     27225     27226     27227     27228     27227     27229     27228     27229
     27230     27231     27230     27232     27231     27232     27233     27234
     27233     27235     27234     27235     27236     27237     27236     27238
     27237     27238     27239     27240     27239     27241     27240     27241
     27242     27243     27242     27244     27243     27244     27245     27246
     27245     27247     27246     27247     27248     27249     27248     27250
     27249     27250     27251     27252     27251     27253     27252     27253
     27254     27255     27254     27256     27255     27256     27257     27258
     27257     27259     27258     27259     27260     27261     27260     27262
     27261     27262     27263     27264     27263     27265     27264     27265
     27266     27267     27266     27268     27267     27268     27269     27270
     27269     27271     27270     27271     27272     27273     27272     27274
     27273     27274     27275     27276     27275     27277     27276     27277
     27278     27279     27278     27280     27279     27280     27281     27282
     27281     27283     27282     27283     27284     27285     27284     27286
     27285     27286     27287     27288     27287     27289     27288     27289
     27290     27291     27290     27292     27291     27292     27293     27294
     27293     27295     27294     27295     27296     27297     27296     27298
     27297     27298     27299     27300     27299     27301     27300     27301
     27302     27303     27302     27304     27303     27304     27305     27306
     27305     27307     27306     27307     27308     27309     27308     27310
     27309     27310     27311     27312     27311     27313     27312     27313
     27314     27315     27314     27316     27315     27316     27317     27318
     27317     27319     27318     27319     27320     27321     27320     27322
     27321     27322     27323     27324     27323     27325     27324     27325
     27326     27327     27326     27328     27327     27328     27329     27330
     27329     27331     27330     27331     27332     27333     27332     27334
     27333     27334     27335     27336     27335     27337     27336     27337
     27338     27339     27338     27340     27339     27340     27341     27342
     27341     27343     27342     27343     27344     27345     27344     27346
     27345     27346     27347     27348     27347     27349     27348     27349
     27350     27351     27350     27352     27351     27352     27353     27354
     27353     27355     27354     27355     27356     27357     27356     27358
     27357     27358     27359     27360     27359     27361     27360     27361
     27362     27363     27362     27364     27363     27364     27365     27366
     27365     27367     27366     27367     27368     27369     27368     27370
     27369     27370     27371     27372     27371     27373     27372     27373
     27374     27375     27374     27376     27375     27376     27377     27378
     27377     27379     27378     27379     27380     27381     27380     27382
     27381     27382     27383     27384     27383     27385     27384     27385
     27386     27387     27386     27388     27387     27388     27389     27390
     27389     27391     27390     27391     27392     27393     27392     27394
     27393     27394     27395     27396     27395     27397     27396     27397
     27398     27399     27398     27400     27399     27400     27401     27402
     27401     27403     27402     27403     27404     27405     27404     27406
     27405     27406     27407     27408     27407     27409     27408     27409
     27410     27411     27410     27412     27411     27412     27413     27414
     27413     27415     27414     27415     27416     27417     27416     27418
     27417     27418     27419     27420     27419     27421     27420     27421
     27422     27423     27422     27424     27423     27424     27425     27426
     27425     27427     27426     27427     27428     27429     27428     27430
     27429     27430     27431     27432     27431     27433     27432     27433
     27434     27435     27434     27436     27435     27436     27437     27438
     27437     27439     27438     27439     27440     27441     27440     27442
     27441     27442     27443     27444     27443     27445     27444     27445
     27446     27447     27446     27448     27447     27448     27449     27450
     27449     27451     27450     27451     27452     27453     27452     27454
     27453     27454     27455     27456     27455     27457     27456     27457
     27458     27459     27458     27460     27459     27460     27461     27462
     27461     27463     27462     27463     27464     27465     27464     27466
     27465     27466     27467     27468     27467     27469     27468     27469
     27470     27471     27470     27472     27471     27472     27473     27474
     27473     27475     27474     27475     27476     27477     27476     27478
     27477     27478     27479     27480     27479     27481     27480     27481
     27482     27483     27482     27484     27483     27484     27485     27486
     27485     27487     27486     27487     27488     27489     27488     27490
     27489     27490     27491     27492     27491     27493     27492     27493
     27494     27495     27494     27496     27495     27496     27497     27498
     27497     27499     27498     27499     27500     27501     27500     27502
     27501     27502     27503     27504     27503     27505     27504     27505
     27506     27507     27506     27508     27507     27508     27509     27510
     27509     27511     27510     27511     27512     27513     27512     27514
     27513     27514     27515     27516     27515     27517     27516     27517
     27518     27519     27518     27520     27519     27520     27521     27522
     27521     27523     27522     27523     27524     27525     27524     27526
     27525     27526     27527     27528     27527     27529     27528     27529
     27530     27531     27530     27532     27531     27532     27533     27534
     27533     27535     27534     27535     27536     27537     27536     27538
     27537     27538     27539     27540     27539     27541     27540     27541
     27542     27543     27542     27544     27543     27544     27545     27546
     27545     27547     27546     27547     27548     27549     27548     27550
     27549     27550     27551     27552     27551     27553     27552     27553
     27554     27555     27554     27556     27555     27556     27557     27558
     27557     27559     27558     27559     27560     27561     27560     27562
     27561     27562     27563     27564     27563     27565     27564     27565
     27566     27567     27566     27568     27567     27568     27569     27570
     27569     27571     27570     27571     27572     27573     27572     27574
     27573     27574     27575     27576     27575     27577     27576     27577
     27578     27579     27578     27580     27579     27580     27581     27582
     27581     27583     27582     27583     27584     27585     27584     27586
     27585     27586     27587     27588     27587     27589     27588     27589
     27590     27591     27590     27592     27591     27592     27593     27594
     27593     27595     27594     27595     27596     27597     27596     27598
     27597     27598     27599     27600     27599     27601     27600     27601
     27602     27603     27602     27604     27603     27604     27605     27606
     27605     27607     27606     27607     27608     27609     27608     27610
     27609     27610     27611     27612     27611     27613     27612     27613
     27614     27615     27614     27616     27615     27616     27617     27618
     27617     27619     27618     27619     27620     27621     27620     27622
     27621     27622     27623     27624     27623     27625     27624     27625
     27626     27627     27626     27628     27627     27628     27629     27630
     27629     27631     27630     27631     27632     27633     27632     27634
     27633     27634     27635     27636     27635     27637     27636     27637
     27638     27639     27638     27640     27639     27640     27641     27642
     27641     27643     27642     27643     27644     27645     27644     27646
     27645     27646     27647     27648     27647     27649     27648     27649
     27650     27651     27650     27652     27651     27652     27653     27654
     27653     27655     27654     27655     27656     27657     27656     27658
     27657     27658     27659     27660     27659     27661     27660     27661
     27662     27663     27662     27664     27663     27664     27665     27666
     27665     27667     27666     27667     27668     27669     27668     27670
     27669     27670     27671     27672     27671     27673     27672     27673
     27674     27675     27674     27676     27675     27676     27677     27678
     27677     27679     27678     27679     27680     27681     27680     27682
     27681     27682     27683     27684     27683     27685     27684     27685
     27686     27687     27686     27688     27687     27688     27689     27690
     27689     27691     27690     27691     27692     27693     27692     27694
     27693     27694     27695     27696     27695     27697     27696     27697
     27698     27699     27698     27700     27699     27700     27701     27702
     27701     27703     27702     27703     27704     27705     27704     27706
     27705     27706     27707     27708     27707     27709     27708     27709
     27710     27711     27710     27712     27711     27712     27713     27714
     27713     27715     27714     27715     27716     27717     27716     27718
     27717     27718     27719     27720     27719     27721     27720     27721
     27722     27723     27722     27724     27723     27724     27725     27726
     27725     27727     27726     27727     27728     27729     27728     27730
     27729     27730     27731     27732     27731     27733     27732     27733
     27734     27735     27734     27736     27735     27736     27737     27738
     27737     27739     27738     27739     27740     27741     27740     27742
     27741     27742     27743     27744     27743     27745     27744     27745
     27746     27747     27746     27748     27747     27748     27749     27750
     27749     27751     27750     27751     27752     27753     27752     27754
     27753     27754     27755     27756     27755     27757     27756     27757
     27758     27759     27758     27760     27759     27760     27761     27762
     27761     27763     27762     27763     27764     27765     27764     27766
     27765     27766     27767     27768     27767     27769     27768     27769
     27770     27771     27770     27772     27771     27772     27773     27774
     27773     27775     27774     27775     27776     27777     27776     27778
     27777     27778     27779     27780     27779     27781     27780     27781
     27782     27783     27782     27784     27783     27784     27785     27786
     27785     27787     27786     27787     27788     27789     27788     27790
     27789     27790     27791     27792     27791     27793     27792     27793
     27794     27795     27794     27796     27795     27796     27797     27798
     27797     27799     27798     27799     27800     27801     27800     27802
     27801     27802     27803     27804     27803     27805     27804     27805
     27806     27807     27806     27808     27807     27808     27809     27810
     27809     27811     27810     27811     27812     27813     27812     27814
     27813     27814     27815     27816     27815     27817     27816     27817
     27818     27819     27818     27820     27819     27820     27821     27822
     27821     27823     27822     27823     27824     27825     27824     27826
     27825     27826     27827     27828     27827     27829     27828     27829
     27830     27831     27830     27832     27831     27832     27833     27834
     27833     27835     27834     27835     27836     27837     27836     27838
     27837     27838     27839     27840     27839     27841     27840     27841
     27842     27843     27842     27844     27843     27844     27845     27846
     27845     27847     27846     27847     27848     27849     27848     27850
     27849     27850     27851     27852     27851     27853     27852     27853
     27854     27855     27854     27856     27855     27856     27857     27858
     27857     27859     27858     27859     27860     27861     27860     27862
     27861     27862     27863     27864     27863     27865     27864     27865
     27866     27867     27866     27868     27867     27868     27869     27870
     27869     27871     27870     27871     27872     27873     27872     27874
     27873     27874     27875     27876     27875     27877     27876     27877
     27878     27879     27878     27880     27879     27880     27881     27882
     27881     27883     27882     27883     27884     27885     27884     27886
     27885     27886     27887     27888     27887     27889     27888     27889
     27890     27891     27890     27892     27891     27892     27893     27894
     27893     27895     27894     27895     27896     27897     27896     27898
     27897     27898     27899     27900     27899     27901     27900     27901
     27902     27903     27902     27904     27903     27904     27905     27906
     27905     27907     27906     27907     27908     27909     27908     27910
     27909     27910     27911     27912     27911     27913     27912     27913
     27914     27915     27914     27916     27915     27916     27917     27918
     27917     27919     27918     27919     27920     27921     27920     27922
     27921     27922     27923     27924     27923     27925     27924     27925
     27926     27927     27926     27928     27927     27928     27929     27930
     27929     27931     27930     27931     27932     27933     27932     27934
     27933     27934     27935     27936     27935     27937     27936     27937
     27938     27939     27938     27940     27939     27940     27941     27942
     27941     27943     27942     27943     27944     27945     27944     27946
     27945     27946     27947     27948     27947     27949     27948     27949
     27950     27951     27950     27952     27951     27952     27953     27954
     27953     27955     27954     27955     27956     27957     27956     27958
     27957     27958     27959     27960     27959     27961     27960     27961
     27962     27963     27962     27964     27963     27964     27965     27966
     27965     27967     27966     27967     27968     27969     27968     27970
     27969     27970     27971     27972     27971     27973     27972     27973
     27974     27975     27974     27976     27975     27976     27977     27978
     27977     27979     27978     27979     27980     27981     27980     27982
     27981     27982     27983     27984     27983     27985     27984     27985
     27986     27987     27986     27988     27987     27988     27989     27990
     27989     27991     27990     27991     27992     27993     27992     27994
     27993     27994     27995     27996     27995     27997     27996     27997
     27998     27999     27998     28000     27999     28000     28001     28002
     28001     28003     28002     28003     28004     28005     28004     28006
     28005     28006     28007     28008     28007     28009     28008     28009
     28010     28011     28010     28012     28011     28012     28013     28014
     28013     28015     28014     28015     28016     28017     28016     28018
     28017     28018     28019     28020     28019     28021     28020     28021
     28022     28023     28022     28024     28023     28024     28025     28026
     28025     28027     28026     28027     28028     28029     28028     28030
     28029     28030     28031     28032     28031     28033     28032     28033
     28034     28035     28034     28036     28035     28036     28037     28038
     28037     28039     28038     28039     28040     28041     28040     28042
     28041     28042     28043     28044     28043     28045     28044     28045
     28046     28047     28046     28048     28047     28048     28049     28050
     28049     28051     28050     28051     28052     28053     28052     28054
     28053     28054     28055     28056     28055     28057     28056     28057
     28058     28059     28058     28060     28059     28060     28061     28062
     28061     28063     28062     28063     28064     28065     28064     28066
     28065     28066     28067     28068     28067     28069     28068     28069
     28070     28071     28070     28072     28071     28072     28073     28074
     28073     28075     28074     28075     28076     28077     28076     28078
     28077     28078     28079     28080     28079     28081     28080     28081
     28082     28083     28082     28084     28083     28084     28085     28086
     28085     28087     28086     28087     28088     28089     28088     28090
     28089     28090     28091     28092     28091     28093     28092     28093
     28094     28095     28094     28096     28095     28096     28097     28098
     28097     28099     28098     28099     28100     28101     28100     28102
     28101     28102     28103     28104     28103     28105     28104     28105
     28106     28107     28106     28108     28107     28108     28109     28110
     28109     28111     28110     28111     28112     28113     28112     28114
     28113     28114     28115     28116     28115     28117     28116     28117
     28118     28119     28118     28120     28119     28120     28121     28122
     28121     28123     28122     28123     28124     28125     28124     28126
     28125     28126     28127     28128     28127     28129     28128     28129
     28130     28131     28130     28132     28131     28132     28133     28134
     28133     28135     28134     28135     28136     28137     28136     28138
     28137     28138     28139     28140     28139     28141     28140     28141
     28142     28143     28142     28144     28143     28144     28145     28146
     28145     28147     28146     28147     28148     28149     28148     28150
     28149     28150     28151     28152     28151     28153     28152     28153
     28154     28155     28154     28156     28155     28156     28157     28158
     28157     28159     28158     28159     28160     28161     28160     28162
     28161     28162     28163     28164     28163     28165     28164     28165
     28166     28167     28166     28168     28167     28168     28169     28170
     28169     28171     28170     28171     28172     28173     28172     28174
     28173     28174     28175     28176     28175     28177     28176     28177
     28178     28179     28178     28180     28179     28180     28181     28182
     28181     28183     28182     28183     28184     28185     28184     28186
     28185     28186     28187     28188     28187     28189     28188     28189
     28190     28191     28190     28192     28191     28192     28193     28194
     28193     28195     28194     28195     28196     28197     28196     28198
     28197     28198     28199     28200     28199     28201     28200     28201
     28202     28203     28202     28204     28203     28204     28205     28206
     28205     28207     28206     28207     28208     28209     28208     28210
     28209     28210     28211     28212     28211     28213     28212     28213
     28214     28215     28214     28216     28215     28216     28217     28218
     28217     28219     28218     28219     28220     28221     28220     28222
     28221     28222     28223     28224     28223     28225     28224     28225
     28226     28227     28226     28228     28227     28228     28229     28230
     28229     28231     28230     28231     28232     28233     28232     28234
     28233     28234     28235     28236     28235     28237     28236     28237
     28238     28239     28238     28240     28239     28240     28241     28242
     28241     28243     28242     28243     28244     28245     28244     28246
     28245     28246     28247     28248     28247     28249     28248     28249
     28250     28251     28250     28252     28251     28252     28253     28254
     28253     28255     28254     28255     28256     28257     28256     28258
     28257     28258     28259     28260     28259     28261     28260     28261
     28262     28263     28262     28264     28263     28264     28265     28266
     28265     28267     28266     28267     28268     28269     28268     28270
     28269     28270     28271     28272     28271     28273     28272     28273
     28274     28275     28274     28276     28275     28276     28277     28278
     28277     28279     28278     28279     28280     28281     28280     28282
     28281     28282     28283     28284     28283     28285     28284     28285
     28286     28287     28286     28288     28287     28288     28289     28290
     28289     28291     28290     28291     28292     28293     28292     28294
     28293     28294     28295     28296     28295     28297     28296     28297
     28298     28299     28298     28300     28299     28300     28301     28302
     28301     28303     28302     28303     28304     28305     28304     28306
     28305     28306     28307     28308     28307     28309     28308     28309
     28310     28311     28310     28312     28311     28312     28313     28314
     28313     28315     28314     28315     28316     28317     28316     28318
     28317     28318     28319     28320     28319     28321     28320     28321
     28322     28323     28322     28324     28323     28324     28325     28326
     28325     28327     28326     28327     28328     28329     28328     28330
     28329     28330     28331     28332     28331     28333     28332     28333
     28334     28335     28334     28336     28335     28336     28337     28338
     28337     28339     28338     28339     28340     28341     28340     28342
     28341     28342     28343     28344     28343     28345     28344     28345
     28346     28347     28346     28348     28347     28348     28349     28350
     28349     28351     28350     28351     28352     28353     28352     28354
     28353     28354     28355     28356     28355     28357     28356     28357
     28358     28359     28358     28360     28359     28360     28361     28362
     28361     28363     28362     28363     28364     28365     28364     28366
     28365     28366     28367     28368     28367     28369     28368     28369
     28370     28371     28370     28372     28371     28372     28373     28374
     28373     28375     28374     28375     28376     28377     28376     28378
     28377     28378     28379     28380     28379     28381     28380     28381
     28382     28383     28382     28384     28383     28384     28385     28386
     28385     28387     28386     28387     28388     28389     28388     28390
     28389     28390     28391     28392     28391     28393     28392     28393
     28394     28395     28394     28396     28395     28396     28397     28398
     28397     28399     28398     28399     28400     28401     28400     28402
     28401     28402     28403     28404     28403     28405     28404     28405
     28406     28407     28406     28408     28407     28408     28409     28410
     28409     28411     28410     28411     28412     28413     28412     28414
     28413     28414     28415     28416     28415     28417     28416     28417
     28418     28419     28418     28420     28419     28420     28421     28422
     28421     28423     28422     28423     28424     28425     28424     28426
     28425     28426     28427     28428     28427     28429     28428     28429
     28430     28431     28430     28432     28431     28432     28433     28434
     28433     28435     28434     28435     28436     28437     28436     28438
     28437     28438     28439     28440     28439     28441     28440     28441
     28442     28443     28442     28444     28443     28444     28445     28446
     28445     28447     28446     28447     28448     28449     28448     28450
     28449     28450     28451     28452     28451     28453     28452     28453
     28454     28455     28454     28456     28455     28456     28457     28458
     28457     28459     28458     28459     28460     28461     28460     28462
     28461     28462     28463     28464     28463     28465     28464     28465
     28466     28467     28466     28468     28467     28468     28469     28470
     28469     28471     28470     28471     28472     28473     28472     28474
     28473     28474     28475     28476     28475     28477     28476     28477
     28478     28479     28478     28480     28479     28480     28481     28482
     28481     28483     28482     28483     28484     28485     28484     28486
     28485     28486     28487     28488     28487     28489     28488     28489
     28490     28491     28490     28492     28491     28492     28493     28494
     28493     28495     28494     28495     28496     28497     28496     28498
     28497     28498     28499     28500     28499     28501     28500     28501
     28502     28503     28502     28504     28503     28504     28505     28506
     28505     28507     28506     28507     28508     28509     28508     28510
     28509     28510     28511     28512     28511     28513     28512     28513
     28514     28515     28514     28516     28515     28516     28517     28518
     28517     28519     28518     28519     28520     28521     28520     28522
     28521     28522     28523     28524     28523     28525     28524     28525
     28526     28527     28526     28528     28527     28528     28529     28530
     28529     28531     28530     28531     28532     28533     28532     28534
     28533     28534     28535     28536     28535     28537     28536     28537
     28538     28539     28538     28540     28539     28540     28541     28542
     28541     28543     28542     28543     28544     28545     28544     28546
     28545     28546     28547     28548     28547     28549     28548     28549
     28550     28551     28550     28552     28551     28552     28553     28554
     28553     28555     28554     28555     28556     28557     28556     28558
     28557     28558     28559     28560     28559     28561     28560     28561
     28562     28563     28562     28564     28563     28564     28565     28566
     28565     28567     28566     28567     28568     28569     28568     28570
     28569     28570     28571     28572     28571     28573     28572     28573
     28574     28575     28574     28576     28575     28576     28577     28578
     28577     28579     28578     28579     28580     28581     28580     28582
     28581     28582     28583     28584     28583     28585     28584     28585
     28586     28587     28586     28588     28587     28588     28589     28590
     28589     28591     28590     28591     28592     28593     28592     28594
     28593     28594     28595     28596     28595     28597     28596     28597
     28598     28599     28598     28600     28599     28600     28601     28602
     28601     28603     28602     28603     28604     28605     28604     28606
     28605     28606     28607     28608     28607     28609     28608     28609
     28610     28611     28610     28612     28611     28612     28613     28614
     28613     28615     28614     28615     28616     28617     28616     28618
     28617     28618     28619     28620     28619     28621     28620     28621
     28622     28623     28622     28624     28623     28624     28625     28626
     28625     28627     28626     28627     28628     28629     28628     28630
     28629     28630     28631     28632     28631     28633     28632     28633
     28634     28635     28634     28636     28635     28636     28637     28638
     28637     28639     28638     28639     28640     28641     28640     28642
     28641     28642     28643     28644     28643     28645     28644     28645
     28646     28647     28646     28648     28647     28648     28649     28650
     28649     28651     28650     28651     28652     28653     28652     28654
     28653     28654     28655     28656     28655     28657     28656     28657
     28658     28659     28658     28660     28659     28660     28661     28662
     28661     28663     28662     28663     28664     28665     28664     28666
     28665     28666     28667     28668     28667     28669     28668     28669
     28670     28671     28670     28672     28671     28672     28673     28674
     28673     28675     28674     28675     28676     28677     28676     28678
     28677     28678     28679     28680     28679     28681     28680     28681
     28682     28683     28682     28684     28683     28684     28685     28686
     28685     28687     28686     28687     28688     28689     28688     28690
     28689     28690     28691     28692     28691     28693     28692     28693
     28694     28695     28694     28696     28695     28696     28697     28698
     28697     28699     28698     28699     28700     28701     28700     28702
     28701     28702     28703     28704     28703     28705     28704     28705
     28706     28707     28706     28708     28707     28708     28709     28710
     28709     28711     28710     28711     28712     28713     28712     28714
     28713     28714     28715     28716     28715     28717     28716     28717
     28718     28719     28718     28720     28719     28720     28721     28722
     28721     28723     28722     28723     28724     28725     28724     28726
     28725     28726     28727     28728     28727     28729     28728     28729
     28730     28731     28730     28732     28731     28732     28733     28734
     28733     28735     28734     28735     28736     28737     28736     28738
     28737     28738     28739     28740     28739     28741     28740     28741
     28742     28743     28742     28744     28743     28744     28745     28746
     28745     28747     28746     28747     28748     28749     28748     28750
     28749     28750     28751     28752     28751     28753     28752     28753
     28754     28755     28754     28756     28755     28756     28757     28758
     28757     28759     28758     28759     28760     28761     28760     28762
     28761     28762     28763     28764     28763     28765     28764     28765
     28766     28767     28766     28768     28767     28768     28769     28770
     28769     28771     28770     28771     28772     28773     28772     28774
     28773     28774     28775     28776     28775     28777     28776     28777
     28778     28779     28778     28780     28779     28780     28781     28782
     28781     28783     28782     28783     28784     28785     28784     28786
     28785     28786     28787     28788     28787     28789     28788     28789
     28790     28791     28790     28792     28791     28792     28793     28794
     28793     28795     28794     28795     28796     28797     28796     28798
     28797     28798     28799     28800     28799     28801     28800     28801
     28802     28803     28802     28804     28803     28804     28805     28806
     28805     28807     28806     28807     28808     28809     28808     28810
     28809     28810     28811     28812     28811     28813     28812     28813
     28814     28815     28814     28816     28815     28816     28817     28818
     28817     28819     28818     28819     28820     28821     28820     28822
     28821     28822     28823     28824     28823     28825     28824     28825
     28826     28827     28826     28828     28827     28828     28829     28830
     28829     28831     28830     28831     28832     28833     28832     28834
     28833     28834     28835     28836     28835     28837     28836     28837
     28838     28839     28838     28840     28839     28840     28841     28842
     28841     28843     28842     28843     28844     28845     28844     28846
     28845     28846     28847     28848     28847     28849     28848     28849
     28850     28851     28850     28852     28851     28852     28853     28854
     28853     28855     28854     28855     28856     28857     28856     28858
     28857     28858     28859     28860     28859     28861     28860     28861
     28862     28863     28862     28864     28863     28864     28865     28866
     28865     28867     28866     28867     28868     28869     28868     28870
     28869     28870     28871     28872     28871     28873     28872     28873
     28874     28875     28874     28876     28875     28876     28877     28878
     28877     28879     28878     28879     28880     28881     28880     28882
     28881     28882     28883     28884     28883     28885     28884     28885
     28886     28887     28886     28888     28887     28888     28889     28890
     28889     28891     28890     28891     28892     28893     28892     28894
     28893     28894     28895     28896     28895     28897     28896     28897
     28898     28899     28898     28900     28899     28900     28901     28902
     28901     28903     28902     28903     28904     28905     28904     28906
     28905     28906     28907     28908     28907     28909     28908     28909
     28910     28911     28910     28912     28911     28912     28913     28914
     28913     28915     28914     28915     28916     28917     28916     28918
     28917     28918     28919     28920     28919     28921     28920     28921
     28922     28923     28922     28924     28923     28924     28925     28926
     28925     28927     28926     28927     28928     28929     28928     28930
     28929     28930     28931     28932     28931     28933     28932     28933
     28934     28935     28934     28936     28935     28936     28937     28938
     28937     28939     28938     28939     28940     28941     28940     28942
     28941     28942     28943     28944     28943     28945     28944     28945
     28946     28947     28946     28948     28947     28948     28949     28950
     28949     28951     28950     28951     28952     28953     28952     28954
     28953     28954     28955     28956     28955     28957     28956     28957
     28958     28959     28958     28960     28959     28960     28961     28962
     28961     28963     28962     28963     28964     28965     28964     28966
     28965     28966     28967     28968     28967     28969     28968     28969
     28970     28971     28970     28972     28971     28972     28973     28974
     28973     28975     28974     28975     28976     28977     28976     28978
     28977     28978     28979     28980     28979     28981     28980     28981
     28982     28983     28982     28984     28983     28984     28985     28986
     28985     28987     28986     28987     28988     28989     28988     28990
     28989     28990     28991     28992     28991     28993     28992     28993
     28994     28995     28994     28996     28995     28996     28997     28998
     28997     28999     28998     28999     29000     29001     29000     29002
     29001     29002     29003     29004     29003     29005     29004     29005
     29006     29007     29006     29008     29007     29008     29009     29010
     29009     29011     29010     29011     29012     29013     29012     29014
     29013     29014     29015     29016     29015     29017     29016     29017
     29018     29019     29018     29020     29019     29020     29021     29022
     29021     29023     29022     29023     29024     29025     29024     29026
     29025     29026     29027     29028     29027     29029     29028     29029
     29030     29031     29030     29032     29031     29032     29033     29034
     29033     29035     29034     29035     29036     29037     29036     29038
     29037     29038     29039     29040     29039     29041     29040     29041
     29042     29043     29042     29044     29043     29044     29045     29046
     29045     29047     29046     29047     29048     29049     29048     29050
     29049     29050     29051     29052     29051     29053     29052     29053
     29054     29055     29054     29056     29055     29056     29057     29058
     29057     29059     29058     29059     29060     29061     29060     29062
     29061     29062     29063     29064     29063     29065     29064     29065
     29066     29067     29066     29068     29067     29068     29069     29070
     29069     29071     29070     29071     29072     29073     29072     29074
     29073     29074     29075     29076     29075     29077     29076     29077
     29078     29079     29078     29080     29079     29080     29081     29082
     29081     29083     29082     29083     29084     29085     29084     29086
     29085     29086     29087     29088     29087     29089     29088     29089
     29090     29091     29090     29092     29091     29092     29093     29094
     29093     29095     29094     29095     29096     29097     29096     29098
     29097     29098     29099     29100     29099     29101     29100     29101
     29102     29103     29102     29104     29103     29104     29105     29106
     29105     29107     29106     29107     29108     29109     29108     29110
     29109     29110     29111     29112     29111     29113     29112     29113
     29114     29115     29114     29116     29115     29116     29117     29118
     29117     29119     29118     29119     29120     29121     29120     29122
     29121     29122     29123     29124     29123     29125     29124     29125
     29126     29127     29126     29128     29127     29128     29129     29130
     29129     29131     29130     29131     29132     29133     29132     29134
     29133     29134     29135     29136     29135     29137     29136     29137
     29138     29139     29138     29140     29139     29140     29141     29142
     29141     29143     29142     29143     29144     29145     29144     29146
     29145     29146     29147     29148     29147     29149     29148     29149
     29150     29151     29150     29152     29151     29152     29153     29154
     29153     29155     29154     29155     29156     29157     29156     29158
     29157     29158     29159     29160     29159     29161     29160     29161
     29162     29163     29162     29164     29163     29164     29165     29166
     29165     29167     29166     29167     29168     29169     29168     29170
     29169     29170     29171     29172     29171     29173     29172     29173
     29174     29175     29174     29176     29175     29176     29177     29178
     29177     29179     29178     29179     29180     29181     29180     29182
     29181     29182     29183     29184     29183     29185     29184     29185
     29186     29187     29186     29188     29187     29188     29189     29190
     29189     29191     29190     29191     29192     29193     29192     29194
     29193     29194     29195     29196     29195     29197     29196     29197
     29198     29199     29198     29200     29199     29200     29201     29202
     29201     29203     29202     29203     29204     29205     29204     29206
     29205     29206     29207     29208     29207     29209     29208     29209
     29210     29211     29210     29212     29211     29212     29213     29214
     29213     29215     29214     29215     29216     29217     29216     29218
     29217     29218     29219     29220     29219     29221     29220     29221
     29222     29223     29222     29224     29223     29224     29225     29226
     29225     29227     29226     29227     29228     29229     29228     29230
     29229     29230     29231     29232     29231     29233     29232     29233
     29234     29235     29234     29236     29235     29236     29237     29238
     29237     29239     29238     29239     29240     29241     29240     29242
     29241     29242     29243     29244     29243     29245     29244     29245
     29246     29247     29246     29248     29247     29248     29249     29250
     29249     29251     29250     29251     29252     29253     29252     29254
     29253     29254     29255     29256     29255     29257     29256     29257
     29258     29259     29258     29260     29259     29260     29261     29262
     29261     29263     29262     29263     29264     29265     29264     29266
     29265     29266     29267     29268     29267     29269     29268     29269
     29270     29271     29270     29272     29271     29272     29273     29274
     29273     29275     29274     29275     29276     29277     29276     29278
     29277     29278     29279     29280     29279     29281     29280     29281
     29282     29283     29282     29284     29283     29284     29285     29286
     29285     29287     29286     29287     29288     29289     29288     29290
     29289     29290     29291     29292     29291     29293     29292     29293
     29294     29295     29294     29296     29295     29296     29297     29298
     29297     29299     29298     29299     29300     29301     29300     29302
     29301     29302     29303     29304     29303     29305     29304     29305
     29306     29307     29306     29308     29307     29308     29309     29310
     29309     29311     29310     29311     29312     29313     29312     29314
     29313     29314     29315     29316     29315     29317     29316     29317
     29318     29319     29318     29320     29319     29320     29321     29322
     29321     29323     29322     29323     29324     29325     29324     29326
     29325     29326     29327     29328     29327     29329     29328     29329
     29330     29331     29330     29332     29331     29332     29333     29334
     29333     29335     29334     29335     29336     29337     29336     29338
     29337     29338     29339     29340     29339     29341     29340     29341
     29342     29343     29342     29344     29343     29344     29345     29346
     29345     29347     29346     29347     29348     29349     29348     29350
     29349     29350     29351     29352     29351     29353     29352     29353
     29354     29355     29354     29356     29355     29356     29357     29358
     29357     29359     29358     29359     29360     29361     29360     29362
     29361     29362     29363     29364     29363     29365     29364     29365
     29366     29367     29366     29368     29367     29368     29369     29370
     29369     29371     29370     29371     29372     29373     29372     29374
     29373     29374     29375     29376     29375     29377     29376     29377
     29378     29379     29378     29380     29379     29380     29381     29382
     29381     29383     29382     29383     29384     29385     29384     29386
     29385     29386     29387     29388     29387     29389     29388     29389
     29390     29391     29390     29392     29391     29392     29393     29394
     29393     29395     29394     29395     29396     29397     29396     29398
     29397     29398     29399     29400     29399     29401     29400     29401
     29402     29403     29402     29404     29403     29404     29405     29406
     29405     29407     29406     29407     29408     29409     29408     29410
     29409     29410     29411     29412     29411     29413     29412     29413
     29414     29415     29414     29416     29415     29416     29417     29418
     29417     29419     29418     29419     29420     29421     29420     29422
     29421     29422     29423     29424     29423     29425     29424     29425
     29426     29427     29426     29428     29427     29428     29429     29430
     29429     29431     29430     29431     29432     29433     29432     29434
     29433     29434     29435     29436     29435     29437     29436     29437
     29438     29439     29438     29440     29439     29440     29441     29442
     29441     29443     29442     29443     29444     29445     29444     29446
     29445     29446     29447     29448     29447     29449     29448     29449
     29450     29451     29450     29452     29451     29452     29453     29454
     29453     29455     29454     29455     29456     29457     29456     29458
     29457     29458     29459     29460     29459     29461     29460     29461
     29462     29463     29462     29464     29463     29464     29465     29466
     29465     29467     29466     29467     29468     29469     29468     29470
     29469     29470     29471     29472     29471     29473     29472     29473
     29474     29475     29474     29476     29475     29476     29477     29478
     29477     29479     29478     29479     29480     29481     29480     29482
     29481     29482     29483     29484     29483     29485     29484     29485
     29486     29487     29486     29488     29487     29488     29489     29490
     29489     29491     29490     29491     29492     29493     29492     29494
     29493     29494     29495     29496     29495     29497     29496     29497
     29498     29499     29498     29500     29499     29500     29501     29502
     29501     29503     29502     29503     29504     29505     29504     29506
     29505     29506     29507     29508     29507     29509     29508     29509
     29510     29511     29510     29512     29511     29512     29513     29514
     29513     29515     29514     29515     29516     29517     29516     29518
     29517     29518     29519     29520     29519     29521     29520     29521
     29522     29523     29522     29524     29523     29524     29525     29526
     29525     29527     29526     29527     29528     29529     29528     29530
     29529     29530     29531     29532     29531     29533     29532     29533
     29534     29535     29534     29536     29535     29536     29537     29538
     29537     29539     29538     29539     29540     29541     29540     29542
     29541     29542     29543     29544     29543     29545     29544     29545
     29546     29547     29546     29548     29547     29548     29549     29550
     29549     29551     29550     29551     29552     29553     29552     29554
     29553     29554     29555     29556     29555     29557     29556     29557
     29558     29559     29558     29560     29559     29560     29561     29562
     29561     29563     29562     29563     29564     29565     29564     29566
     29565     29566     29567     29568     29567     29569     29568     29569
     29570     29571     29570     29572     29571     29572     29573     29574
     29573     29575     29574     29575     29576     29577     29576     29578
     29577     29578     29579     29580     29579     29581     29580     29581
     29582     29583     29582     29584     29583     29584     29585     29586
     29585     29587     29586     29587     29588     29589     29588     29590
     29589     29590     29591     29592     29591     29593     29592     29593
     29594     29595     29594     29596     29595     29596     29597     29598
     29597     29599     29598     29599     29600     29601     29600     29602
     29601     29602     29603     29604     29603     29605     29604     29605
     29606     29607     29606     29608     29607     29608     29609     29610
     29609     29611     29610     29611     29612     29613     29612     29614
     29613     29614     29615     29616     29615     29617     29616     29617
     29618     29619     29618     29620     29619     29620     29621     29622
     29621     29623     29622     29623     29624     29625     29624     29626
     29625     29626     29627     29628     29627     29629     29628     29629
     29630     29631     29630     29632     29631     29632     29633     29634
     29633     29635     29634     29635     29636     29637     29636     29638
     29637     29638     29639     29640     29639     29641     29640     29641
     29642     29643     29642     29644     29643     29644     29645     29646
     29645     29647     29646     29647     29648     29649     29648     29650
     29649     29650     29651     29652     29651     29653     29652     29653
     29654     29655     29654     29656     29655     29656     29657     29658
     29657     29659     29658     29659     29660     29661     29660     29662
     29661     29662     29663     29664     29663     29665     29664     29665
     29666     29667     29666     29668     29667     29668     29669     29670
     29669     29671     29670     29671     29672     29673     29672     29674
     29673     29674     29675     29676     29675     29677     29676     29677
     29678     29679     29678     29680     29679     29680     29681     29682
     29681     29683     29682     29683     29684     29685     29684     29686
     29685     29686     29687     29688     29687     29689     29688     29689
     29690     29691     29690     29692     29691     29692     29693     29694
     29693     29695     29694     29695     29696     29697     29696     29698
     29697     29698     29699     29700     29699     29701     29700     29701
     29702     29703     29702     29704     29703     29704     29705     29706
     29705     29707     29706     29707     29708     29709     29708     29710
     29709     29710     29711     29712     29711     29713     29712     29713
     29714     29715     29714     29716     29715     29716     29717     29718
     29717     29719     29718     29719     29720     29721     29720     29722
     29721     29722     29723     29724     29723     29725     29724     29725
     29726     29727     29726     29728     29727     29728     29729     29730
     29729     29731     29730     29731     29732     29733     29732     29734
     29733     29734     29735     29736     29735     29737     29736     29737
     29738     29739     29738     29740     29739     29740     29741     29742
     29741     29743     29742     29743     29744     29745     29744     29746
     29745     29746     29747     29748     29747     29749     29748     29749
     29750     29751     29750     29752     29751     29752     29753     29754
     29753     29755     29754     29755     29756     29757     29756     29758
     29757     29758     29759     29760     29759     29761     29760     29761
     29762     29763     29762     29764     29763     29764     29765     29766
     29765     29767     29766     29767     29768     29769     29768     29770
     29769     29770     29771     29772     29771     29773     29772     29773
     29774     29775     29774     29776     29775     29776     29777     29778
     29777     29779     29778     29779     29780     29781     29780     29782
     29781     29782     29783     29784     29783     29785     29784     29785
     29786     29787     29786     29788     29787     29788     29789     29790
     29789     29791     29790     29791     29792     29793     29792     29794
     29793     29794     29795     29796     29795     29797     29796     29797
     29798     29799     29798     29800     29799     29800     29801     29802
     29801     29803     29802     29803     29804     29805     29804     29806
     29805     29806     29807     29808     29807     29809     29808     29809
     29810     29811     29810     29812     29811     29812     29813     29814
     29813     29815     29814     29815     29816     29817     29816     29818
     29817     29818     29819     29820     29819     29821     29820     29821
     29822     29823     29822     29824     29823     29824     29825     29826
     29825     29827     29826     29827     29828     29829     29828     29830
     29829     29830     29831     29832     29831     29833     29832     29833
     29834     29835     29834     29836     29835     29836     29837     29838
     29837     29839     29838     29839     29840     29841     29840     29842
     29841     29842     29843     29844     29843     29845     29844     29845
     29846     29847     29846     29848     29847     29848     29849     29850
     29849     29851     29850     29851     29852     29853     29852     29854
     29853     29854     29855     29856     29855     29857     29856     29857
     29858     29859     29858     29860     29859     29860     29861     29862
     29861     29863     29862     29863     29864     29865     29864     29866
     29865     29866     29867     29868     29867     29869     29868     29869
     29870     29871     29870     29872     29871     29872     29873     29874
     29873     29875     29874     29875     29876     29877     29876     29878
     29877     29878     29879     29880     29879     29881     29880     29881
     29882     29883     29882     29884     29883     29884     29885     29886
     29885     29887     29886     29887     29888     29889     29888     29890
     29889     29890     29891     29892     29891     29893     29892     29893
     29894     29895     29894     29896     29895     29896     29897     29898
     29897     29899     29898     29899     29900     29901     29900     29902
     29901     29902     29903     29904     29903     29905     29904     29905
     29906     29907     29906     29908     29907     29908     29909     29910
     29909     29911     29910     29911     29912     29913     29912     29914
     29913     29914     29915     29916     29915     29917     29916     29917
     29918     29919     29918     29920     29919     29920     29921     29922
     29921     29923     29922     29923     29924     29925     29924     29926
     29925     29926     29927     29928     29927     29929     29928     29929
     29930     29931     29930     29932     29931     29932     29933     29934
     29933     29935     29934     29935     29936     29937     29936     29938
     29937     29938     29939     29940     29939     29941     29940     29941
     29942     29943     29942     29944     29943     29944     29945     29946
     29945     29947     29946     29947     29948     29949     29948     29950
     29949     29950     29951     29952     29951     29953     29952     29953
     29954     29955     29954     29956     29955     29956     29957     29958
     29957     29959     29958     29959     29960     29961     29960     29962
     29961     29962     29963     29964     29963     29965     29964     29965
     29966     29967     29966     29968     29967     29968     29969     29970
     29969     29971     29970     29971     29972     29973     29972     29974
     29973     29974     29975     29976     29975     29977     29976     29977
     29978     29979     29978     29980     29979     29980     29981     29982
     29981     29983     29982     29983     29984     29985     29984     29986
     29985     29986     29987     29988     29987     29989     29988     29989
     29990     29991     29990     29992     29991     29992     29993     29994
     29993     29995     29994     29995     29996     29997     29996     29998
     29997     29998     29999     30000     29999     30001     30000     30001
     30002     30003     30002     30004     30003     30004     30005     30006
     30005     30007     30006     30007     30008     30009     30008     30010
     30009     30010     30011     30012     30011     30013     30012     30013
     30014     30015     30014     30016     30015     30016     30017     30018
     30017     30019     30018     30019     30020     30021     30020     30022
     30021     30022     30023     30024     30023     30025     30024     30025
     30026     30027     30026     30028     30027     30028     30029     30030
     30029     30031     30030     30031     30032     30033     30032     30034
     30033     30034     30035     30036     30035     30037     30036     30037
     30038     30039     30038     30040     30039     30040     30041     30042
     30041     30043     30042     30043     30044     30045     30044     30046
     30045     30046     30047     30048     30047     30049     30048     30049
     30050     30051     30050     30052     30051     30052     30053     30054
     30053     30055     30054     30055     30056     30057     30056     30058
     30057     30058     30059     30060     30059     30061     30060     30061
     30062     30063     30062     30064     30063     30064     30065     30066
     30065     30067     30066     30067     30068     30069     30068     30070
     30069     30070     30071     30072     30071     30073     30072     30073
     30074     30075     30074     30076     30075     30076     30077     30078
     30077     30079     30078     30079     30080     30081     30080     30082
     30081     30082     30083     30084     30083     30085     30084     30085
     30086     30087     30086     30088     30087     30088     30089     30090
     30089     30091     30090     30091     30092     30093     30092     30094
     30093     30094     30095     30096     30095     30097     30096     30097
     30098     30099     30098     30100     30099     30100     30101     30102
     30101     30103     30102     30103     30104     30105     30104     30106
     30105     30106     30107     30108     30107     30109     30108     30109
     30110     30111     30110     30112     30111     30112     30113     30114
     30113     30115     30114     30115     30116     30117     30116     30118
     30117     30118     30119     30120     30119     30121     30120     30121
     30122     30123     30122     30124     30123     30124     30125     30126
     30125     30127     30126     30127     30128     30129     30128     30130
     30129     30130     30131     30132     30131     30133     30132     30133
     30134     30135     30134     30136     30135     30136     30137     30138
     30137     30139     30138     30139     30140     30141     30140     30142
     30141     30142     30143     30144     30143     30145     30144     30145
     30146     30147     30146     30148     30147     30148     30149     30150
     30149     30151     30150     30151     30152     30153     30152     30154
     30153     30154     30155     30156     30155     30157     30156     30157
     30158     30159     30158     30160     30159     30160     30161     30162
     30161     30163     30162     30163     30164     30165     30164     30166
     30165     30166     30167     30168     30167     30169     30168     30169
     30170     30171     30170     30172     30171     30172     30173     30174
     30173     30175     30174     30175     30176     30177     30176     30178
     30177     30178     30179     30180     30179     30181     30180     30181
     30182     30183     30182     30184     30183     30184     30185     30186
     30185     30187     30186     30187     30188     30189     30188     30190
     30189     30190     30191     30192     30191     30193     30192     30193
     30194     30195     30194     30196     30195     30196     30197     30198
     30197     30199     30198     30199     30200     30201     30200     30202
     30201     30202     30203     30204     30203     30205     30204     30205
     30206     30207     30206     30208     30207     30208     30209     30210
     30209     30211     30210     30211     30212     30213     30212     30214
     30213     30214     30215     30216     30215     30217     30216     30217
     30218     30219     30218     30220     30219     30220     30221     30222
     30221     30223     30222     30223     30224     30225     30224     30226
     30225     30226     30227     30228     30227     30229     30228     30229
     30230     30231     30230     30232     30231     30232     30233     30234
     30233     30235     30234     30235     30236     30237     30236     30238
     30237     30238     30239     30240     30239     30241     30240     30241
     30242     30243     30242     30244     30243     30244     30245     30246
     30245     30247     30246     30247     30248     30249     30248     30250
     30249     30250     30251     30252     30251     30253     30252     30253
     30254     30255     30254     30256     30255     30256     30257     30258
     30257     30259     30258     30259     30260     30261     30260     30262
     30261     30262     30263     30264     30263     30265     30264     30265
     30266     30267     30266     30268     30267     30268     30269     30270
     30269     30271     30270     30271     30272     30273     30272     30274
     30273     30274     30275     30276     30275     30277     30276     30277
     30278     30279     30278     30280     30279     30280     30281     30282
     30281     30283     30282     30283     30284     30285     30284     30286
     30285     30286     30287     30288     30287     30289     30288     30289
     30290     30291     30290     30292     30291     30292     30293     30294
     30293     30295     30294     30295     30296     30297     30296     30298
     30297     30298     30299     30300     30299     30301     30300     30301
     30302     30303     30302     30304     30303     30304     30305     30306
     30305     30307     30306     30307     30308     30309     30308     30310
     30309     30310     30311     30312     30311     30313     30312     30313
     30314     30315     30314     30316     30315     30316     30317     30318
     30317     30319     30318     30319     30320     30321     30320     30322
     30321     30322     30323     30324     30323     30325     30324     30325
     30326     30327     30326     30328     30327     30328     30329     30330
     30329     30331     30330     30331     30332     30333     30332     30334
     30333     30334     30335     30336     30335     30337     30336     30337
     30338     30339     30338     30340     30339     30340     30341     30342
     30341     30343     30342     30343     30344     30345     30344     30346
     30345     30346     30347     30348     30347     30349     30348     30349
     30350     30351     30350     30352     30351     30352     30353     30354
     30353     30355     30354     30355     30356     30357     30356     30358
     30357     30358     30359     30360     30359     30361     30360     30361
     30362     30363     30362     30364     30363     30364     30365     30366
     30365     30367     30366     30367     30368     30369     30368     30370
     30369     30370     30371     30372     30371     30373     30372     30373
     30374     30375     30374     30376     30375     30376     30377     30378
     30377     30379     30378     30379     30380     30381     30380     30382
     30381     30382     30383     30384     30383     30385     30384     30385
     30386     30387     30386     30388     30387     30388     30389     30390
     30389     30391     30390     30391     30392     30393     30392     30394
     30393     30394     30395     30396     30395     30397     30396     30397
     30398     30399     30398     30400     30399     30400     30401     30402
     30401     30403     30402     30403     30404     30405     30404     30406
     30405     30406     30407     30408     30407     30409     30408     30409
     30410     30411     30410     30412     30411     30412     30413     30414
     30413     30415     30414     30415     30416     30417     30416     30418
     30417     30418     30419     30420     30419     30421     30420     30421
     30422     30423     30422     30424     30423     30424     30425     30426
     30425     30427     30426     30427     30428     30429     30428     30430
     30429     30430     30431     30432     30431     30433     30432     30433
     30434     30435     30434     30436     30435     30436     30437     30438
     30437     30439     30438     30439     30440     30441     30440     30442
     30441     30442     30443     30444     30443     30445     30444     30445
     30446     30447     30446     30448     30447     30448     30449     30450
     30449     30451     30450     30451     30452     30453     30452     30454
     30453     30454     30455     30456     30455     30457     30456     30457
     30458     30459     30458     30460     30459     30460     30461     30462
     30461     30463     30462     30463     30464     30465     30464     30466
     30465     30466     30467     30468     30467     30469     30468     30469
     30470     30471     30470     30472     30471     30472     30473     30474
     30473     30475     30474     30475     30476     30477     30476     30478
     30477     30478     30479     30480     30479     30481     30480     30481
     30482     30483     30482     30484     30483     30484     30485     30486
     30485     30487     30486     30487     30488     30489     30488     30490
     30489     30490     30491     30492     30491     30493     30492     30493
     30494     30495     30494     30496     30495     30496     30497     30498
     30497     30499     30498     30499     30500     30501     30500     30502
     30501     30502     30503     30504     30503     30505     30504     30505
     30506     30507     30506     30508     30507     30508     30509     30510
     30509     30511     30510     30511     30512     30513     30512     30514
     30513     30514     30515     30516     30515     30517     30516     30517
     30518     30519     30518     30520     30519     30520     30521     30522
     30521     30523     30522     30523     30524     30525     30524     30526
     30525     30526     30527     30528     30527     30529     30528     30529
     30530     30531     30530     30532     30531     30532     30533     30534
     30533     30535     30534     30535     30536     30537     30536     30538
     30537     30538     30539     30540     30539     30541     30540     30541
     30542     30543     30542     30544     30543     30544     30545     30546
     30545     30547     30546     30547     30548     30549     30548     30550
     30549     30550     30551     30552     30551     30553     30552     30553
     30554     30555     30554     30556     30555     30556     30557     30558
     30557     30559     30558     30559     30560     30561     30560     30562
     30561     30562     30563     30564     30563     30565     30564     30565
     30566     30567     30566     30568     30567     30568     30569     30570
     30569     30571     30570     30571     30572     30573     30572     30574
     30573     30574     30575     30576     30575     30577     30576     30577
     30578     30579     30578     30580     30579     30580     30581     30582
     30581     30583     30582     30583     30584     30585     30584     30586
     30585     30586     30587     30588     30587     30589     30588     30589
     30590     30591     30590     30592     30591     30592     30593     30594
     30593     30595     30594     30595     30596     30597     30596     30598
     30597     30598     30599     30600     30599     30601     30600     30601
     30602     30603     30602     30604     30603     30604     30605     30606
     30605     30607     30606     30607     30608     30609     30608     30610
     30609     30610     30611     30612     30611     30613     30612     30613
     30614     30615     30614     30616     30615     30616     30617     30618
     30617     30619     30618     30619     30620     30621     30620     30622
     30621     30622     30623     30624     30623     30625     30624     30625
     30626     30627     30626     30628     30627     30628     30629     30630
     30629     30631     30630     30631     30632     30633     30632     30634
     30633     30634     30635     30636     30635     30637     30636     30637
     30638     30639     30638     30640     30639     30640     30641     30642
     30641     30643     30642     30643     30644     30645     30644     30646
     30645     30646     30647     30648     30647     30649     30648     30649
     30650     30651     30650     30652     30651     30652     30653     30654
     30653     30655     30654     30655     30656     30657     30656     30658
     30657     30658     30659     30660     30659     30661     30660     30661
     30662     30663     30662     30664     30663     30664     30665     30666
     30665     30667     30666     30667     30668     30669     30668     30670
     30669     30670     30671     30672     30671     30673     30672     30673
     30674     30675     30674     30676     30675     30676     30677     30678
     30677     30679     30678     30679     30680     30681     30680     30682
     30681     30682     30683     30684     30683     30685     30684     30685
     30686     30687     30686     30688     30687     30688     30689     30690
     30689     30691     30690     30691     30692     30693     30692     30694
     30693     30694     30695     30696     30695     30697     30696     30697
     30698     30699     30698     30700     30699     30700     30701     30702
     30701     30703     30702     30703     30704     30705     30704     30706
     30705     30706     30707     30708     30707     30709     30708     30709
     30710     30711     30710     30712     30711     30712     30713     30714
     30713     30715     30714     30715     30716     30717     30716     30718
     30717     30718     30719     30720     30719     30721     30720     30721
     30722     30723     30722     30724     30723     30724     30725     30726
     30725     30727     30726     30727     30728     30729     30728     30730
     30729     30730     30731     30732     30731     30733     30732     30733
     30734     30735     30734     30736     30735     30736     30737     30738
     30737     30739     30738     30739     30740     30741     30740     30742
     30741     30742     30743     30744     30743     30745     30744     30745
     30746     30747     30746     30748     30747     30748     30749     30750
     30749     30751     30750     30751     30752     30753     30752     30754
     30753     30754     30755     30756     30755     30757     30756     30757
     30758     30759     30758     30760     30759     30760     30761     30762
     30761     30763     30762     30763     30764     30765     30764     30766
     30765     30766     30767     30768     30767     30769     30768     30769
     30770     30771     30770     30772     30771     30772     30773     30774
     30773     30775     30774     30775     30776     30777     30776     30778
     30777     30778     30779     30780     30779     30781     30780     30781
     30782     30783     30782     30784     30783     30784     30785     30786
     30785     30787     30786     30787     30788     30789     30788     30790
     30789     30790     30791     30792     30791     30793     30792     30793
     30794     30795     30794     30796     30795     30796     30797     30798
     30797     30799     30798     30799     30800     30801     30800     30802
     30801     30802     30803     30804     30803     30805     30804     30805
     30806     30807     30806     30808     30807     30808     30809     30810
     30809     30811     30810     30811     30812     30813     30812     30814
     30813     30814     30815     30816     30815     30817     30816     30817
     30818     30819     30818     30820     30819     30820     30821     30822
     30821     30823     30822     30823     30824     30825     30824     30826
     30825     30826     30827     30828     30827     30829     30828     30829
     30830     30831     30830     30832     30831     30832     30833     30834
     30833     30835     30834     30835     30836     30837     30836     30838
     30837     30838     30839     30840     30839     30841     30840     30841
     30842     30843     30842     30844     30843     30844     30845     30846
     30845     30847     30846     30847     30848     30849     30848     30850
     30849     30850     30851     30852     30851     30853     30852     30853
     30854     30855     30854     30856     30855     30856     30857     30858
     30857     30859     30858     30859     30860     30861     30860     30862
     30861     30862     30863     30864     30863     30865     30864     30865
     30866     30867     30866     30868     30867     30868     30869     30870
     30869     30871     30870     30871     30872     30873     30872     30874
     30873     30874     30875     30876     30875     30877     30876     30877
     30878     30879     30878     30880     30879     30880     30881     30882
     30881     30883     30882     30883     30884     30885     30884     30886
     30885     30886     30887     30888     30887     30889     30888     30889
     30890     30891     30890     30892     30891     30892     30893     30894
     30893     30895     30894     30895     30896     30897     30896     30898
     30897     30898     30899     30900     30899     30901     30900     30901
     30902     30903     30902     30904     30903     30904     30905     30906
     30905     30907     30906     30907     30908     30909     30908     30910
     30909     30910     30911     30912     30911     30913     30912     30913
     30914     30915     30914     30916     30915     30916     30917     30918
     30917     30919     30918     30919     30920     30921     30920     30922
     30921     30922     30923     30924     30923     30925     30924     30925
     30926     30927     30926     30928     30927     30928     30929     30930
     30929     30931     30930     30931     30932     30933     30932     30934
     30933     30934     30935     30936     30935     30937     30936     30937
     30938     30939     30938     30940     30939     30940     30941     30942
     30941     30943     30942     30943     30944     30945     30944     30946
     30945     30946     30947     30948     30947     30949     30948     30949
     30950     30951     30950     30952     30951     30952     30953     30954
     30953     30955     30954     30955     30956     30957     30956     30958
     30957     30958     30959     30960     30959     30961     30960     30961
     30962     30963     30962     30964     30963     30964     30965     30966
     30965     30967     30966     30967     30968     30969     30968     30970
     30969     30970     30971     30972     30971     30973     30972     30973
     30974     30975     30974     30976     30975     30976     30977     30978
     30977     30979     30978     30979     30980     30981     30980     30982
     30981     30982     30983     30984     30983     30985     30984     30985
     30986     30987     30986     30988     30987     30988     30989     30990
     30989     30991     30990     30991     30992     30993     30992     30994
     30993     30994     30995     30996     30995     30997     30996     30997
     30998     30999     30998     31000     30999     31000     31001     31002
     31001     31003     31002     31003     31004     31005     31004     31006
     31005     31006     31007     31008     31007     31009     31008     31009
     31010     31011     31010     31012     31011     31012     31013     31014
     31013     31015     31014     31015     31016     31017     31016     31018
     31017     31018     31019     31020     31019     31021     31020     31021
     31022     31023     31022     31024     31023     31024     31025     31026
     31025     31027     31026     31027     31028     31029     31028     31030
     31029     31030     31031     31032     31031     31033     31032     31033
     31034     31035     31034     31036     31035     31036     31037     31038
     31037     31039     31038     31039     31040     31041     31040     31042
     31041     31042     31043     31044     31043     31045     31044     31045
     31046     31047     31046     31048     31047     31048     31049     31050
     31049     31051     31050     31051     31052     31053     31052     31054
     31053     31054     31055     31056     31055     31057     31056     31057
     31058     31059     31058     31060     31059     31060     31061     31062
     31061     31063     31062     31063     31064     31065     31064     31066
     31065     31066     31067     31068     31067     31069     31068     31069
     31070     31071     31070     31072     31071     31072     31073     31074
     31073     31075     31074     31075     31076     31077     31076     31078
     31077     31078     31079     31080     31079     31081     31080     31081
     31082     31083     31082     31084     31083     31084     31085     31086
     31085     31087     31086     31087     31088     31089     31088     31090
     31089     31090     31091     31092     31091     31093     31092     31093
     31094     31095     31094     31096     31095     31096     31097     31098
     31097     31099     31098     31099     31100     31101     31100     31102
     31101     31102     31103     31104     31103     31105     31104     31105
     31106     31107     31106     31108     31107     31108     31109     31110
     31109     31111     31110     31111     31112     31113     31112     31114
     31113     31114     31115     31116     31115     31117     31116     31117
     31118     31119     31118     31120     31119     31120     31121     31122
     31121     31123     31122     31123     31124     31125     31124     31126
     31125     31126     31127     31128     31127     31129     31128     31129
     31130     31131     31130     31132     31131     31132     31133     31134
     31133     31135     31134     31135     31136     31137     31136     31138
     31137     31138     31139     31140     31139     31141     31140     31141
     31142     31143     31142     31144     31143     31144     31145     31146
     31145     31147     31146     31147     31148     31149     31148     31150
     31149     31150     31151     31152     31151     31153     31152     31153
     31154     31155     31154     31156     31155     31156     31157     31158
     31157     31159     31158     31159     31160     31161     31160     31162
     31161     31162     31163     31164     31163     31165     31164     31165
     31166     31167     31166     31168     31167     31168     31169     31170
     31169     31171     31170     31171     31172     31173     31172     31174
     31173     31174     31175     31176     31175     31177     31176     31177
     31178     31179     31178     31180     31179     31180     31181     31182
     31181     31183     31182     31183     31184     31185     31184     31186
     31185     31186     31187     31188     31187     31189     31188     31189
     31190     31191     31190     31192     31191     31192     31193     31194
     31193     31195     31194     31195     31196     31197     31196     31198
     31197     31198     31199     31200     31199     31201     31200     31201
     31202     31203     31202     31204     31203     31204     31205     31206
     31205     31207     31206     31207     31208     31209     31208     31210
     31209     31210     31211     31212     31211     31213     31212     31213
     31214     31215     31214     31216     31215     31216     31217     31218
     31217     31219     31218     31219     31220     31221     31220     31222
     31221     31222     31223     31224     31223     31225     31224     31225
     31226     31227     31226     31228     31227     31228     31229     31230
     31229     31231     31230     31231     31232     31233     31232     31234
     31233     31234     31235     31236     31235     31237     31236     31237
     31238     31239     31238     31240     31239     31240     31241     31242
     31241     31243     31242     31243     31244     31245     31244     31246
     31245     31246     31247     31248     31247     31249     31248     31249
     31250     31251     31250     31252     31251     31252     31253     31254
     31253     31255     31254     31255     31256     31257     31256     31258
     31257     31258     31259     31260     31259     31261     31260     31261
     31262     31263     31262     31264     31263     31264     31265     31266
     31265     31267     31266     31267     31268     31269     31268     31270
     31269     31270     31271     31272     31271     31273     31272     31273
     31274     31275     31274     31276     31275     31276     31277     31278
     31277     31279     31278     31279     31280     31281     31280     31282
     31281     31282     31283     31284     31283     31285     31284     31285
     31286     31287     31286     31288     31287     31288     31289     31290
     31289     31291     31290     31291     31292     31293     31292     31294
     31293     31294     31295     31296     31295     31297     31296     31297
     31298     31299     31298     31300     31299     31300     31301     31302
     31301     31303     31302     31303     31304     31305     31304     31306
     31305     31306     31307     31308     31307     31309     31308     31309
     31310     31311     31310     31312     31311     31312     31313     31314
     31313     31315     31314     31315     31316     31317     31316     31318
     31317     31318     31319     31320     31319     31321     31320     31321
     31322     31323     31322     31324     31323     31324     31325     31326
     31325     31327     31326     31327     31328     31329     31328     31330
     31329     31330     31331     31332     31331     31333     31332     31333
     31334     31335     31334     31336     31335     31336     31337     31338
     31337     31339     31338     31339     31340     31341     31340     31342
     31341     31342     31343     31344     31343     31345     31344     31345
     31346     31347     31346     31348     31347     31348     31349     31350
     31349     31351     31350     31351     31352     31353     31352     31354
     31353     31354     31355     31356     31355     31357     31356     31357
     31358     31359     31358     31360     31359     31360     31361     31362
     31361     31363     31362     31363     31364     31365     31364     31366
     31365     31366     31367     31368     31367     31369     31368     31369
     31370     31371     31370     31372     31371     31372     31373     31374
     31373     31375     31374     31375     31376     31377     31376     31378
     31377     31378     31379     31380     31379     31381     31380     31381
     31382     31383     31382     31384     31383     31384     31385     31386
     31385     31387     31386     31387     31388     31389     31388     31390
     31389     31390     31391     31392     31391     31393     31392     31393
     31394     31395     31394     31396     31395     31396     31397     31398
     31397     31399     31398     31399     31400     31401     31400     31402
     31401     31402     31403     31404     31403     31405     31404     31405
     31406     31407     31406     31408     31407     31408     31409     31410
     31409     31411     31410     31411     31412     31413     31412     31414
     31413     31414     31415     31416     31415     31417     31416     31417
     31418     31419     31418     31420     31419     31420     31421     31422
     31421     31423     31422     31423     31424     31425     31424     31426
     31425     31426     31427     31428     31427     31429     31428     31429
     31430     31431     31430     31432     31431     31432     31433     31434
     31433     31435     31434     31435     31436     31437     31436     31438
     31437     31438     31439     31440     31439     31441     31440     31441
     31442     31443     31442     31444     31443     31444     31445     31446
     31445     31447     31446     31447     31448     31449     31448     31450
     31449     31450     31451     31452     31451     31453     31452     31453
     31454     31455     31454     31456     31455     31456     31457     31458
     31457     31459     31458     31459     31460     31461     31460     31462
     31461     31462     31463     31464     31463     31465     31464     31465
     31466     31467     31466     31468     31467     31468     31469     31470
     31469     31471     31470     31471     31472     31473     31472     31474
     31473     31474     31475     31476     31475     31477     31476     31477
     31478     31479     31478     31480     31479     31480     31481     31482
     31481     31483     31482     31483     31484     31485     31484     31486
     31485     31486     31487     31488     31487     31489     31488     31489
     31490     31491     31490     31492     31491     31492     31493     31494
     31493     31495     31494     31495     31496     31497     31496     31498
     31497     31498     31499     31500     31499     31501     31500     31501
     31502     31503     31502     31504     31503     31504     31505     31506
     31505     31507     31506     31507     31508     31509     31508     31510
     31509     31510     31511     31512     31511     31513     31512     31513
     31514     31515     31514     31516     31515     31516     31517     31518
     31517     31519     31518     31519     31520     31521     31520     31522
     31521     31522     31523     31524     31523     31525     31524     31525
     31526     31527     31526     31528     31527     31528     31529     31530
     31529     31531     31530     31531     31532     31533     31532     31534
     31533     31534     31535     31536     31535     31537     31536     31537
     31538     31539     31538     31540     31539     31540     31541     31542
     31541     31543     31542     31543     31544     31545     31544     31546
     31545     31546     31547     31548     31547     31549     31548     31549
     31550     31551     31550     31552     31551     31552     31553     31554
     31553     31555     31554     31555     31556     31557     31556     31558
     31557     31558     31559     31560     31559     31561     31560     31561
     31562     31563     31562     31564     31563     31564     31565     31566
     31565     31567     31566     31567     31568     31569     31568     31570
     31569     31570     31571     31572     31571     31573     31572     31573
     31574     31575     31574     31576     31575     31576     31577     31578
     31577     31579     31578     31579     31580     31581     31580     31582
     31581     31582     31583     31584     31583     31585     31584     31585
     31586     31587     31586     31588     31587     31588     31589     31590
     31589     31591     31590     31591     31592     31593     31592     31594
     31593     31594     31595     31596     31595     31597     31596     31597
     31598     31599     31598     31600     31599     31600     31601     31602
     31601     31603     31602     31603     31604     31605     31604     31606
     31605     31606     31607     31608     31607     31609     31608     31609
     31610     31611     31610     31612     31611     31612     31613     31614
     31613     31615     31614     31615     31616     31617     31616     31618
     31617     31618     31619     31620     31619     31621     31620     31621
     31622     31623     31622     31624     31623     31624     31625     31626
     31625     31627     31626     31627     31628     31629     31628     31630
     31629     31630     31631     31632     31631     31633     31632     31633
     31634     31635     31634     31636     31635     31636     31637     31638
     31637     31639     31638     31639     31640     31641     31640     31642
     31641     31642     31643     31644     31643     31645     31644     31645
     31646     31647     31646     31648     31647     31648     31649     31650
     31649     31651     31650     31651     31652     31653     31652     31654
     31653     31654     31655     31656     31655     31657     31656     31657
     31658     31659     31658     31660     31659     31660     31661     31662
     31661     31663     31662     31663     31664     31665     31664     31666
     31665     31666     31667     31668     31667     31669     31668     31669
     31670     31671     31670     31672     31671     31672     31673     31674
     31673     31675     31674     31675     31676     31677     31676     31678
     31677     31678     31679     31680     31679     31681     31680     31681
     31682     31683     31682     31684     31683     31684     31685     31686
     31685     31687     31686     31687     31688     31689     31688     31690
     31689     31690     31691     31692     31691     31693     31692     31693
     31694     31695     31694     31696     31695     31696     31697     31698
     31697     31699     31698     31699     31700     31701     31700     31702
     31701     31702     31703     31704     31703     31705     31704     31705
     31706     31707     31706     31708     31707     31708     31709     31710
     31709     31711     31710     31711     31712     31713     31712     31714
     31713     31714     31715     31716     31715     31717     31716     31717
     31718     31719     31718     31720     31719     31720     31721     31722
     31721     31723     31722     31723     31724     31725     31724     31726
     31725     31726     31727     31728     31727     31729     31728     31729
     31730     31731     31730     31732     31731     31732     31733     31734
     31733     31735     31734     31735     31736     31737     31736     31738
     31737     31738     31739     31740     31739     31741     31740     31741
     31742     31743     31742     31744     31743     31744     31745     31746
     31745     31747     31746     31747     31748     31749     31748     31750
     31749     31750     31751     31752     31751     31753     31752     31753
     31754     31755     31754     31756     31755     31756     31757     31758
     31757     31759     31758     31759     31760     31761     31760     31762
     31761     31762     31763     31764     31763     31765     31764     31765
     31766     31767     31766     31768     31767     31768     31769     31770
     31769     31771     31770     31771     31772     31773     31772     31774
     31773     31774     31775     31776     31775     31777     31776     31777
     31778     31779     31778     31780     31779     31780     31781     31782
     31781     31783     31782     31783     31784     31785     31784     31786
     31785     31786     31787     31788     31787     31789     31788     31789
     31790     31791     31790     31792     31791     31792     31793     31794
     31793     31795     31794     31795     31796     31797     31796     31798
     31797     31798     31799     31800     31799     31801     31800     31801
     31802     31803     31802     31804     31803     31804     31805     31806
     31805     31807     31806     31807     31808     31809     31808     31810
     31809     31810     31811     31812     31811     31813     31812     31813
     31814     31815     31814     31816     31815     31816     31817     31818
     31817     31819     31818     31819     31820     31821     31820     31822
     31821     31822     31823     31824     31823     31825     31824     31825
     31826     31827     31826     31828     31827     31828     31829     31830
     31829     31831     31830     31831     31832     31833     31832     31834
     31833     31834     31835     31836     31835     31837     31836     31837
     31838     31839     31838     31840     31839     31840     31841     31842
     31841     31843     31842     31843     31844     31845     31844     31846
     31845     31846     31847     31848     31847     31849     31848     31849
     31850     31851     31850     31852     31851     31852     31853     31854
     31853     31855     31854     31855     31856     31857     31856     31858
     31857     31858     31859     31860     31859     31861     31860     31861
     31862     31863     31862     31864     31863     31864     31865     31866
     31865     31867     31866     31867     31868     31869     31868     31870
     31869     31870     31871     31872     31871     31873     31872     31873
     31874     31875     31874     31876     31875     31876     31877     31878
     31877     31879     31878     31879     31880     31881     31880     31882
     31881     31882     31883     31884     31883     31885     31884     31885
     31886     31887     31886     31888     31887     31888     31889     31890
     31889     31891     31890     31891     31892     31893     31892     31894
     31893     31894     31895     31896     31895     31897     31896     31897
     31898     31899     31898     31900     31899     31900     31901     31902
     31901     31903     31902     31903     31904     31905     31904     31906
     31905     31906     31907     31908     31907     31909     31908     31909
     31910     31911     31910     31912     31911     31912     31913     31914
     31913     31915     31914     31915     31916     31917     31916     31918
     31917     31918     31919     31920     31919     31921     31920     31921
     31922     31923     31922     31924     31923     31924     31925     31926
     31925     31927     31926     31927     31928     31929     31928     31930
     31929     31930     31931     31932     31931     31933     31932     31933
     31934     31935     31934     31936     31935     31936     31937     31938
     31937     31939     31938     31939     31940     31941     31940     31942
     31941     31942     31943     31944     31943     31945     31944     31945
     31946     31947     31946     31948     31947     31948     31949     31950
     31949     31951     31950     31951     31952     31953     31952     31954
     31953     31954     31955     31956     31955     31957     31956     31957
     31958     31959     31958     31960     31959     31960     31961     31962
     31961     31963     31962     31963     31964     31965     31964     31966
     31965     31966     31967     31968     31967     31969     31968     31969
     31970     31971     31970     31972     31971     31972     31973     31974
     31973     31975     31974     31975     31976     31977     31976     31978
     31977     31978     31979     31980     31979     31981     31980     31981
     31982     31983     31982     31984     31983     31984     31985     31986
     31985     31987     31986     31987     31988     31989     31988     31990
     31989     31990     31991     31992     31991     31993     31992     31993
     31994     31995     31994     31996     31995     31996     31997     31998
     31997     31999     31998     31999     32000     32001     32000     32002
     32001     32002     32003     32004     32003     32005     32004     32005
     32006     32007     32006     32008     32007     32008     32009     32010
     32009     32011     32010     32011     32012     32013     32012     32014
     32013     32014     32015     32016     32015     32017     32016     32017
     32018     32019     32018     32020     32019     32020     32021     32022
     32021     32023     32022     32023     32024     32025     32024     32026
     32025     32026     32027     32028     32027     32029     32028     32029
     32030     32031     32030     32032     32031     32032     32033     32034
     32033     32035     32034     32035     32036     32037     32036     32038
     32037     32038     32039     32040     32039     32041     32040     32041
     32042     32043     32042     32044     32043     32044     32045     32046
     32045     32047     32046     32047     32048     32049     32048     32050
     32049     32050     32051     32052     32051     32053     32052     32053
     32054     32055     32054     32056     32055     32056     32057     32058
     32057     32059     32058     32059     32060     32061     32060     32062
     32061     32062     32063     32064     32063     32065     32064     32065
     32066     32067     32066     32068     32067     32068     32069     32070
     32069     32071     32070     32071     32072     32073     32072     32074
     32073     32074     32075     32076     32075     32077     32076     32077
     32078     32079     32078     32080     32079     32080     32081     32082
     32081     32083     32082     32083     32084     32085     32084     32086
     32085     32086     32087     32088     32087     32089     32088     32089
     32090     32091     32090     32092     32091     32092     32093     32094
     32093     32095     32094     32095     32096     32097     32096     32098
     32097     32098     32099     32100     32099     32101     32100     32101
     32102     32103     32102     32104     32103     32104     32105     32106
     32105     32107     32106     32107     32108     32109     32108     32110
     32109     32110     32111     32112     32111     32113     32112     32113
     32114     32115     32114     32116     32115     32116     32117     32118
     32117     32119     32118     32119     32120     32121     32120     32122
     32121     32122     32123     32124     32123     32125     32124     32125
     32126     32127     32126     32128     32127     32128     32129     32130
     32129     32131     32130     32131     32132     32133     32132     32134
     32133     32134     32135     32136     32135     32137     32136     32137
     32138     32139     32138     32140     32139     32140     32141     32142
     32141     32143     32142     32143     32144     32145     32144     32146
     32145     32146     32147     32148     32147     32149     32148     32149
     32150     32151     32150     32152     32151     32152     32153     32154
     32153     32155     32154     32155     32156     32157     32156     32158
     32157     32158     32159     32160     32159     32161     32160     32161
     32162     32163     32162     32164     32163     32164     32165     32166
     32165     32167     32166     32167     32168     32169     32168     32170
     32169     32170     32171     32172     32171     32173     32172     32173
     32174     32175     32174     32176     32175     32176     32177     32178
     32177     32179     32178     32179     32180     32181     32180     32182
     32181     32182     32183     32184     32183     32185     32184     32185
     32186     32187     32186     32188     32187     32188     32189     32190
     32189     32191     32190     32191     32192     32193     32192     32194
     32193     32194     32195     32196     32195     32197     32196     32197
     32198     32199     32198     32200     32199     32200     32201     32202
     32201     32203     32202     32203     32204     32205     32204     32206
     32205     32206     32207     32208     32207     32209     32208     32209
     32210     32211     32210     32212     32211     32212     32213     32214
     32213     32215     32214     32215     32216     32217     32216     32218
     32217     32218     32219     32220     32219     32221     32220     32221
     32222     32223     32222     32224     32223     32224     32225     32226
     32225     32227     32226     32227     32228     32229     32228     32230
     32229     32230     32231     32232     32231     32233     32232     32233
     32234     32235     32234     32236     32235     32236     32237     32238
     32237     32239     32238     32239     32240     32241     32240     32242
     32241     32242     32243     32244     32243     32245     32244     32245
     32246     32247     32246     32248     32247     32248     32249     32250
     32249     32251     32250     32251     32252     32253     32252     32254
     32253     32254     32255     32256     32255     32257     32256     32257
     32258     32259     32258     32260     32259     32260     32261     32262
     32261     32263     32262     32263     32264     32265     32264     32266
     32265     32266     32267     32268     32267     32269     32268     32269
     32270     32271     32270     32272     32271     32272     32273     32274
     32273     32275     32274     32275     32276     32277     32276     32278
     32277     32278     32279     32280     32279     32281     32280     32281
     32282     32283     32282     32284     32283     32284     32285     32286
     32285     32287     32286     32287     32288     32289     32288     32290
     32289     32290     32291     32292     32291     32293     32292     32293
     32294     32295     32294     32296     32295     32296     32297     32298
     32297     32299     32298     32299     32300     32301     32300     32302
     32301     32302     32303     32304     32303     32305     32304     32305
     32306     32307     32306     32308     32307     32308     32309     32310
     32309     32311     32310     32311     32312     32313     32312     32314
     32313     32314     32315     32316     32315     32317     32316     32317
     32318     32319     32318     32320     32319     32320     32321     32322
     32321     32323     32322     32323     32324     32325     32324     32326
     32325     32326     32327     32328     32327     32329     32328     32329
     32330     32331     32330     32332     32331     32332     32333     32334
     32333     32335     32334     32335     32336     32337     32336     32338
     32337     32338     32339     32340     32339     32341     32340     32341
     32342     32343     32342     32344     32343     32344     32345     32346
     32345     32347     32346     32347     32348     32349     32348     32350
     32349     32350     32351     32352     32351     32353     32352     32353
     32354     32355     32354     32356     32355     32356     32357     32358
     32357     32359     32358     32359     32360     32361     32360     32362
     32361     32362     32363     32364     32363     32365     32364     32365
     32366     32367     32366     32368     32367     32368     32369     32370
     32369     32371     32370     32371     32372     32373     32372     32374
     32373     32374     32375     32376     32375     32377     32376     32377
     32378     32379     32378     32380     32379     32380     32381     32382
     32381     32383     32382     32383     32384     32385     32384     32386
     32385     32386     32387     32388     32387     32389     32388     32389
     32390     32391     32390     32392     32391     32392     32393     32394
     32393     32395     32394     32395     32396     32397     32396     32398
     32397     32398     32399     32400     32399     32401     32400     32401
     32402     32403     32402     32404     32403     32404     32405     32406
     32405     32407     32406     32407     32408     32409     32408     32410
     32409     32410     32411     32412     32411     32413     32412     32413
     32414     32415     32414     32416     32415     32416     32417     32418
     32417     32419     32418     32419     32420     32421     32420     32422
     32421     32422     32423     32424     32423     32425     32424     32425
     32426     32427     32426     32428     32427     32428     32429     32430
     32429     32431     32430     32431     32432     32433     32432     32434
     32433     32434     32435     32436     32435     32437     32436     32437
     32438     32439     32438     32440     32439     32440     32441     32442
     32441     32443     32442     32443     32444     32445     32444     32446
     32445     32446     32447     32448     32447     32449     32448     32449
     32450     32451     32450     32452     32451     32452     32453     32454
     32453     32455     32454     32455     32456     32457     32456     32458
     32457     32458     32459     32460     32459     32461     32460     32461
     32462     32463     32462     32464     32463     32464     32465     32466
     32465     32467     32466     32467     32468     32469     32468     32470
     32469     32470     32471     32472     32471     32473     32472     32473
     32474     32475     32474     32476     32475     32476     32477     32478
     32477     32479     32478     32479     32480     32481     32480     32482
     32481     32482     32483     32484     32483     32485     32484     32485
     32486     32487     32486     32488     32487     32488     32489     32490
     32489     32491     32490     32491     32492     32493     32492     32494
     32493     32494     32495     32496     32495     32497     32496     32497
     32498     32499     32498     32500     32499     32500     32501     32502
     32501     32503     32502     32503     32504     32505     32504     32506
     32505     32506     32507     32508     32507     32509     32508     32509
     32510     32511     32510     32512     32511     32512     32513     32514
     32513     32515     32514     32515     32516     32517     32516     32518
     32517     32518     32519     32520     32519     32521     32520     32521
     32522     32523     32522     32524     32523     32524     32525     32526
     32525     32527     32526     32527     32528     32529     32528     32530
     32529     32530     32531     32532     32531     32533     32532     32533
     32534     32535     32534     32536     32535     32536     32537     32538
     32537     32539     32538     32539     32540     32541     32540     32542
     32541     32542     32543     32544     32543     32545     32544     32545
     32546     32547     32546     32548     32547     32548     32549     32550
     32549     32551     32550     32551     32552     32553     32552     32554
     32553     32554     32555     32556     32555     32557     32556     32557
     32558     32559     32558     32560     32559     32560     32561     32562
     32561     32563     32562     32563     32564     32565     32564     32566
     32565     32566     32567     32568     32567     32569     32568     32569
     32570     32571     32570     32572     32571     32572     32573     32574
     32573     32575     32574     32575     32576     32577     32576     32578
     32577     32578     32579     32580     32579     32581     32580     32581
     32582     32583     32582     32584     32583     32584     32585     32586
     32585     32587     32586     32587     32588     32589     32588     32590
     32589     32590     32591     32592     32591     32593     32592     32593
     32594     32595     32594     32596     32595     32596     32597     32598
     32597     32599     32598     32599     32600     32601     32600     32602
     32601     32602     32603     32604     32603     32605     32604     32605
     32606     32607     32606     32608     32607     32608     32609     32610
     32609     32611     32610     32611     32612     32613     32612     32614
     32613     32614     32615     32616     32615     32617     32616     32617
     32618     32619     32618     32620     32619     32620     32621     32622
     32621     32623     32622     32623     32624     32625     32624     32626
     32625     32626     32627     32628     32627     32629     32628     32629
     32630     32631     32630     32632     32631     32632     32633     32634
     32633     32635     32634     32635     32636     32637     32636     32638
     32637     32638     32639     32640     32639     32641     32640     32641
     32642     32643     32642     32644     32643     32644     32645     32646
     32645     32647     32646     32647     32648     32649     32648     32650
     32649     32650     32651     32652     32651     32653     32652     32653
     32654     32655     32654     32656     32655     32656     32657     32658
     32657     32659     32658     32659     32660     32661     32660     32662
     32661     32662     32663     32664     32663     32665     32664     32665
     32666     32667     32666     32668     32667     32668     32669     32670
     32669     32671     32670     32671     32672     32673     32672     32674
     32673     32674     32675     32676     32675     32677     32676     32677
     32678     32679     32678     32680     32679     32680     32681     32682
     32681     32683     32682     32683     32684     32685     32684     32686
     32685     32686     32687     32688     32687     32689     32688     32689
     32690     32691     32690     32692     32691     32692     32693     32694
     32693     32695     32694     32695     32696     32697     32696     32698
     32697     32698     32699     32700     32699     32701     32700     32701
     32702     32703     32702     32704     32703     32704     32705     32706
     32705     32707     32706     32707     32708     32709     32708     32710
     32709     32710     32711     32712     32711     32713     32712     32713
     32714     32715     32714     32716     32715     32716     32717     32718
     32717     32719     32718     32719     32720     32721     32720     32722
     32721     32722     32723     32724     32723     32725     32724     32725
     32726     32727     32726     32728     32727     32728     32729     32730
     32729     32731     32730     32731     32732     32733     32732     32734
     32733     32734     32735     32736     32735     32737     32736     32737
     32738     32739     32738     32740     32739     32740     32741     32742
     32741     32743     32742     32743     32744     32745     32744     32746
     32745     32746     32747     32748     32747     32749     32748     32749
     32750     32751     32750     32752     32751     32752     32753     32754
     32753     32755     32754     32755     32756     32757     32756     32758
     32757     32758     32759     32760     32759     32761     32760     32761
     32762     32763     32762     32764     32763     32764     32765     32766
     32765     32767     32766     32767     32768     32769     32768     32770
     32769     32770     32771     32772     32771     32773     32772     32773
     32774     32775     32774     32776     32775     32776     32777     32778
     32777     32779     32778     32779     32780     32781     32780     32782
     32781     32782     32783     32784     32783     32785     32784     32785
     32786     32787     32786     32788     32787     32788     32789     32790
     32789     32791     32790     32791     32792     32793     32792     32794
     32793     32794     32795     32796     32795     32797     32796     32797
     32798     32799     32798     32800     32799     32800     32801     32802
     32801     32803     32802     32803     32804     32805     32804     32806
     32805     32806     32807     32808     32807     32809     32808     32809
     32810     32811     32810     32812     32811     32812     32813     32814
     32813     32815     32814     32815     32816     32817     32816     32818
     32817     32818     32819     32820     32819     32821     32820     32821
     32822     32823     32822     32824     32823     32824     32825     32826
     32825     32827     32826     32827     32828     32829     32828     32830
     32829     32830     32831     32832     32831     32833     32832     32833
     32834     32835     32834     32836     32835     32836     32837     32838
     32837     32839     32838     32839     32840     32841     32840     32842
     32841     32842     32843     32844     32843     32845     32844     32845
     32846     32847     32846     32848     32847     32848     32849     32850
     32849     32851     32850     32851     32852     32853     32852     32854
     32853     32854     32855     32856     32855     32857     32856     32857
     32858     32859     32858     32860     32859     32860     32861     32862
     32861     32863     32862     32863     32864     32865     32864     32866
     32865     32866     32867     32868     32867     32869     32868     32869
     32870     32871     32870     32872     32871     32872     32873     32874
     32873     32875     32874     32875     32876     32877     32876     32878
     32877     32878     32879     32880     32879     32881     32880     32881
     32882     32883     32882     32884     32883     32884     32885     32886
     32885     32887     32886     32887     32888     32889     32888     32890
     32889     32890     32891     32892     32891     32893     32892     32893
     32894     32895     32894     32896     32895     32896     32897     32898
     32897     32899     32898     32899     32900     32901     32900     32902
     32901     32902     32903     32904     32903     32905     32904     32905
     32906     32907     32906     32908     32907     32908     32909     32910
     32909     32911     32910     32911     32912     32913     32912     32914
     32913     32914     32915     32916     32915     32917     32916     32917
     32918     32919     32918     32920     32919     32920     32921     32922
     32921     32923     32922     32923     32924     32925     32924     32926
     32925     32926     32927     32928     32927     32929     32928     32929
     32930     32931     32930     32932     32931     32932     32933     32934
     32933     32935     32934     32935     32936     32937     32936     32938
     32937     32938     32939     32940     32939     32941     32940     32941
     32942     32943     32942     32944     32943     32944     32945     32946
     32945     32947     32946     32947     32948     32949     32948     32950
     32949     32950     32951     32952     32951     32953     32952     32953
     32954     32955     32954     32956     32955     32956     32957     32958
     32957     32959     32958     32959     32960     32961     32960     32962
     32961     32962     32963     32964     32963     32965     32964     32965
     32966     32967     32966     32968     32967     32968     32969     32970
     32969     32971     32970     32971     32972     32973     32972     32974
     32973     32974     32975     32976     32975     32977     32976     32977
     32978     32979     32978     32980     32979     32980     32981     32982
     32981     32983     32982     32983     32984     32985     32984     32986
     32985     32986     32987     32988     32987     32989     32988     32989
     32990     32991     32990     32992     32991     32992     32993     32994
     32993     32995     32994     32995     32996     32997     32996     32998
     32997     32998     32999     33000     32999     33001     33000     33001
     33002     33003     33002     33004     33003     33004     33005     33006
     33005     33007     33006     33007     33008     33009     33008     33010
     33009     33010     33011     33012     33011     33013     33012     33013
     33014     33015     33014     33016     33015     33016     33017     33018
     33017     33019     33018     33019     33020     33021     33020     33022
     33021     33022     33023     33024     33023     33025     33024     33025
     33026     33027     33026     33028     33027     33028     33029     33030
     33029     33031     33030     33031     33032     33033     33032     33034
     33033     33034     33035     33036     33035     33037     33036     33037
     33038     33039     33038     33040     33039     33040     33041     33042
     33041     33043     33042     33043     33044     33045     33044     33046
     33045     33046     33047     33048     33047     33049     33048     33049
     33050     33051     33050     33052     33051     33052     33053     33054
     33053     33055     33054     33055     33056     33057     33056     33058
     33057     33058     33059     33060     33059     33061     33060     33061
     33062     33063     33062     33064     33063     33064     33065     33066
     33065     33067     33066     33067     33068     33069     33068     33070
     33069     33070     33071     33072     33071     33073     33072     33073
     33074     33075     33074     33076     33075     33076     33077     33078
     33077     33079     33078     33079     33080     33081     33080     33082
     33081     33082     33083     33084     33083     33085     33084     33085
     33086     33087     33086     33088     33087     33088     33089     33090
     33089     33091     33090     33091     33092     33093     33092     33094
     33093     33094     33095     33096     33095     33097     33096     33097
     33098     33099     33098     33100     33099     33100     33101     33102
     33101     33103     33102     33103     33104     33105     33104     33106
     33105     33106     33107     33108     33107     33109     33108     33109
     33110     33111     33110     33112     33111     33112     33113     33114
     33113     33115     33114     33115     33116     33117     33116     33118
     33117     33118     33119     33120     33119     33121     33120     33121
     33122     33123     33122     33124     33123     33124     33125     33126
     33125     33127     33126     33127     33128     33129     33128     33130
     33129     33130     33131     33132     33131     33133     33132     33133
     33134     33135     33134     33136     33135     33136     33137     33138
     33137     33139     33138     33139     33140     33141     33140     33142
     33141     33142     33143     33144     33143     33145     33144     33145
     33146     33147     33146     33148     33147     33148     33149     33150
     33149     33151     33150     33151     33152     33153     33152     33154
     33153     33154     33155     33156     33155     33157     33156     33157
     33158     33159     33158     33160     33159     33160     33161     33162
     33161     33163     33162     33163     33164     33165     33164     33166
     33165     33166     33167     33168     33167     33169     33168     33169
     33170     33171     33170     33172     33171     33172     33173     33174
     33173     33175     33174     33175     33176     33177     33176     33178
     33177     33178     33179     33180     33179     33181     33180     33181
     33182     33183     33182     33184     33183     33184     33185     33186
     33185     33187     33186     33187     33188     33189     33188     33190
     33189     33190     33191     33192     33191     33193     33192     33193
     33194     33195     33194     33196     33195     33196     33197     33198
     33197     33199     33198     33199     33200     33201     33200     33202
     33201     33202     33203     33204     33203     33205     33204     33205
     33206     33207     33206     33208     33207     33208     33209     33210
     33209     33211     33210     33211     33212     33213     33212     33214
     33213     33214     33215     33216     33215     33217     33216     33217
     33218     33219     33218     33220     33219     33220     33221     33222
     33221     33223     33222     33223     33224     33225     33224     33226
     33225     33226     33227     33228     33227     33229     33228     33229
     33230     33231     33230     33232     33231     33232     33233     33234
     33233     33235     33234     33235     33236     33237     33236     33238
     33237     33238     33239     33240     33239     33241     33240     33241
     33242     33243     33242     33244     33243     33244     33245     33246
     33245     33247     33246     33247     33248     33249     33248     33250
     33249     33250     33251     33252     33251     33253     33252     33253
     33254     33255     33254     33256     33255     33256     33257     33258
     33257     33259     33258     33259     33260     33261     33260     33262
     33261     33262     33263     33264     33263     33265     33264     33265
     33266     33267     33266     33268     33267     33268     33269     33270
     33269     33271     33270     33271     33272     33273     33272     33274
     33273     33274     33275     33276     33275     33277     33276     33277
     33278     33279     33278     33280     33279     33280     33281     33282
     33281     33283     33282     33283     33284     33285     33284     33286
     33285     33286     33287     33288     33287     33289     33288     33289
     33290     33291     33290     33292     33291     33292     33293     33294
     33293     33295     33294     33295     33296     33297     33296     33298
     33297     33298     33299     33300     33299     33301     33300     33301
     33302     33303     33302     33304     33303     33304     33305     33306
     33305     33307     33306     33307     33308     33309     33308     33310
     33309     33310     33311     33312     33311     33313     33312     33313
     33314     33315     33314     33316     33315     33316     33317     33318
     33317     33319     33318     33319     33320     33321     33320     33322
     33321     33322     33323     33324     33323     33325     33324     33325
     33326     33327     33326     33328     33327     33328     33329     33330
     33329     33331     33330     33331     33332     33333     33332     33334
     33333     33334     33335     33336     33335     33337     33336     33337
     33338     33339     33338     33340     33339     33340     33341     33342
     33341     33343     33342     33343     33344     33345     33344     33346
     33345     33346     33347     33348     33347     33349     33348     33349
     33350     33351     33350     33352     33351     33352     33353     33354
     33353     33355     33354     33355     33356     33357     33356     33358
     33357     33358     33359     33360     33359     33361     33360     33361
     33362     33363     33362     33364     33363     33364     33365     33366
     33365     33367     33366     33367     33368     33369     33368     33370
     33369     33370     33371     33372     33371     33373     33372     33373
     33374     33375     33374     33376     33375     33376     33377     33378
     33377     33379     33378     33379     33380     33381     33380     33382
     33381     33382     33383     33384     33383     33385     33384     33385
     33386     33387     33386     33388     33387     33388     33389     33390
     33389     33391     33390     33391     33392     33393     33392     33394
     33393     33394     33395     33396     33395     33397     33396     33397
     33398     33399     33398     33400     33399     33400     33401     33402
     33401     33403     33402     33403     33404     33405     33404     33406
     33405     33406     33407     33408     33407     33409     33408     33409
     33410     33411     33410     33412     33411     33412     33413     33414
     33413     33415     33414     33415     33416     33417     33416     33418
     33417     33418     33419     33420     33419     33421     33420     33421
     33422     33423     33422     33424     33423     33424     33425     33426
     33425     33427     33426     33427     33428     33429     33428     33430
     33429     33430     33431     33432     33431     33433     33432     33433
     33434     33435     33434     33436     33435     33436     33437     33438
     33437     33439     33438     33439     33440     33441     33440     33442
     33441     33442     33443     33444     33443     33445     33444     33445
     33446     33447     33446     33448     33447     33448     33449     33450
     33449     33451     33450     33451     33452     33453     33452     33454
     33453     33454     33455     33456     33455     33457     33456     33457
     33458     33459     33458     33460     33459     33460     33461     33462
     33461     33463     33462     33463     33464     33465     33464     33466
     33465     33466     33467     33468     33467     33469     33468     33469
     33470     33471     33470     33472     33471     33472     33473     33474
     33473     33475     33474     33475     33476     33477     33476     33478
     33477     33478     33479     33480     33479     33481     33480     33481
     33482     33483     33482     33484     33483     33484     33485     33486
     33485     33487     33486     33487     33488     33489     33488     33490
     33489     33490     33491     33492     33491     33493     33492     33493
     33494     33495     33494     33496     33495     33496     33497     33498
     33497     33499     33498     33499     33500     33501     33500     33502
     33501     33502     33503     33504     33503     33505     33504     33505
     33506     33507     33506     33508     33507     33508     33509     33510
     33509     33511     33510     33511     33512     33513     33512     33514
     33513     33514     33515     33516     33515     33517     33516     33517
     33518     33519     33518     33520     33519     33520     33521     33522
     33521     33523     33522     33523     33524     33525     33524     33526
     33525     33526     33527     33528     33527     33529     33528     33529
     33530     33531     33530     33532     33531     33532     33533     33534
     33533     33535     33534     33535     33536     33537     33536     33538
     33537     33538     33539     33540     33539     33541     33540     33541
     33542     33543     33542     33544     33543     33544     33545     33546
     33545     33547     33546     33547     33548     33549     33548     33550
     33549     33550     33551     33552     33551     33553     33552     33553
     33554     33555     33554     33556     33555     33556     33557     33558
     33557     33559     33558     33559     33560     33561     33560     33562
     33561     33562     33563     33564     33563     33565     33564     33565
     33566     33567     33566     33568     33567     33568     33569     33570
     33569     33571     33570     33571     33572     33573     33572     33574
     33573     33574     33575     33576     33575     33577     33576     33577
     33578     33579     33578     33580     33579     33580     33581     33582
     33581     33583     33582     33583     33584     33585     33584     33586
     33585     33586     33587     33588     33587     33589     33588     33589
     33590     33591     33590     33592     33591     33592     33593     33594
     33593     33595     33594     33595     33596     33597     33596     33598
     33597     33598     33599     33600     33599     33601     33600     33601
     33602     33603     33602     33604     33603     33604     33605     33606
     33605     33607     33606     33607     33608     33609     33608     33610
     33609     33610     33611     33612     33611     33613     33612     33613
     33614     33615     33614     33616     33615     33616     33617     33618
     33617     33619     33618     33619     33620     33621     33620     33622
     33621     33622     33623     33624     33623     33625     33624     33625
     33626     33627     33626     33628     33627     33628     33629     33630
     33629     33631     33630     33631     33632     33633     33632     33634
     33633     33634     33635     33636     33635     33637     33636     33637
     33638     33639     33638     33640     33639     33640     33641     33642
     33641     33643     33642     33643     33644     33645     33644     33646
     33645     33646     33647     33648     33647     33649     33648     33649
     33650     33651     33650     33652     33651     33652     33653     33654
     33653     33655     33654     33655     33656     33657     33656     33658
     33657     33658     33659     33660     33659     33661     33660     33661
     33662     33663     33662     33664     33663     33664     33665     33666
     33665     33667     33666     33667     33668     33669     33668     33670
     33669     33670     33671     33672     33671     33673     33672     33673
     33674     33675     33674     33676     33675     33676     33677     33678
     33677     33679     33678     33679     33680     33681     33680     33682
     33681     33682     33683     33684     33683     33685     33684     33685
     33686     33687     33686     33688     33687     33688     33689     33690
     33689     33691     33690     33691     33692     33693     33692     33694
     33693     33694     33695     33696     33695     33697     33696     33697
     33698     33699     33698     33700     33699     33700     33701     33702
     33701     33703     33702     33703     33704     33705     33704     33706
     33705     33706     33707     33708     33707     33709     33708     33709
     33710     33711     33710     33712     33711     33712     33713     33714
     33713     33715     33714     33715     33716     33717     33716     33718
     33717     33718     33719     33720     33719     33721     33720     33721
     33722     33723     33722     33724     33723     33724     33725     33726
     33725     33727     33726     33727     33728     33729     33728     33730
     33729     33730     33731     33732     33731     33733     33732     33733
     33734     33735     33734     33736     33735     33736     33737     33738
     33737     33739     33738     33739     33740     33741     33740     33742
     33741     33742     33743     33744     33743     33745     33744     33745
     33746     33747     33746     33748     33747     33748     33749     33750
     33749     33751     33750     33751     33752     33753     33752     33754
     33753     33754     33755     33756     33755     33757     33756     33757
     33758     33759     33758     33760     33759     33760     33761     33762
     33761     33763     33762     33763     33764     33765     33764     33766
     33765     33766     33767     33768     33767     33769     33768     33769
     33770     33771     33770     33772     33771     33772     33773     33774
     33773     33775     33774     33775     33776     33777     33776     33778
     33777     33778     33779     33780     33779     33781     33780     33781
     33782     33783     33782     33784     33783     33784     33785     33786
     33785     33787     33786     33787     33788     33789     33788     33790
     33789     33790     33791     33792     33791     33793     33792     33793
     33794     33795     33794     33796     33795     33796     33797     33798
     33797     33799     33798     33799     33800     33801     33800     33802
     33801     33802     33803     33804     33803     33805     33804     33805
     33806     33807     33806     33808     33807     33808     33809     33810
     33809     33811     33810     33811     33812     33813     33812     33814
     33813     33814     33815     33816     33815     33817     33816     33817
     33818     33819     33818     33820     33819     33820     33821     33822
     33821     33823     33822     33823     33824     33825     33824     33826
     33825     33826     33827     33828     33827     33829     33828     33829
     33830     33831     33830     33832     33831     33832     33833     33834
     33833     33835     33834     33835     33836     33837     33836     33838
     33837     33838     33839     33840     33839     33841     33840     33841
     33842     33843     33842     33844     33843     33844     33845     33846
     33845     33847     33846     33847     33848     33849     33848     33850
     33849     33850     33851     33852     33851     33853     33852     33853
     33854     33855     33854     33856     33855     33856     33857     33858
     33857     33859     33858     33859     33860     33861     33860     33862
     33861     33862     33863     33864     33863     33865     33864     33865
     33866     33867     33866     33868     33867     33868     33869     33870
     33869     33871     33870     33871     33872     33873     33872     33874
     33873     33874     33875     33876     33875     33877     33876     33877
     33878     33879     33878     33880     33879     33880     33881     33882
     33881     33883     33882     33883     33884     33885     33884     33886
     33885     33886     33887     33888     33887     33889     33888     33889
     33890     33891     33890     33892     33891     33892     33893     33894
     33893     33895     33894     33895     33896     33897     33896     33898
     33897     33898     33899     33900     33899     33901     33900     33901
     33902     33903     33902     33904     33903     33904     33905     33906
     33905     33907     33906     33907     33908     33909     33908     33910
     33909     33910     33911     33912     33911     33913     33912     33913
     33914     33915     33914     33916     33915     33916     33917     33918
     33917     33919     33918     33919     33920     33921     33920     33922
     33921     33922     33923     33924     33923     33925     33924     33925
     33926     33927     33926     33928     33927     33928     33929     33930
     33929     33931     33930     33931     33932     33933     33932     33934
     33933     33934     33935     33936     33935     33937     33936     33937
     33938     33939     33938     33940     33939     33940     33941     33942
     33941     33943     33942     33943     33944     33945     33944     33946
     33945     33946     33947     33948     33947     33949     33948     33949
     33950     33951     33950     33952     33951     33952     33953     33954
     33953     33955     33954     33955     33956     33957     33956     33958
     33957     33958     33959     33960     33959     33961     33960     33961
     33962     33963     33962     33964     33963     33964     33965     33966
     33965     33967     33966     33967     33968     33969     33968     33970
     33969     33970     33971     33972     33971     33973     33972     33973
     33974     33975     33974     33976     33975     33976     33977     33978
     33977     33979     33978     33979     33980     33981     33980     33982
     33981     33982     33983     33984     33983     33985     33984     33985
     33986     33987     33986     33988     33987     33988     33989     33990
     33989     33991     33990     33991     33992     33993     33992     33994
     33993     33994     33995     33996     33995     33997     33996     33997
     33998     33999     33998     34000     33999     34000     34001     34002
     34001     34003     34002     34003     34004     34005     34004     34006
     34005     34006     34007     34008     34007     34009     34008     34009
     34010     34011     34010     34012     34011     34012     34013     34014
     34013     34015     34014     34015     34016     34017     34016     34018
     34017     34018     34019     34020     34019     34021     34020     34021
     34022     34023     34022     34024     34023     34024     34025     34026
     34025     34027     34026     34027     34028     34029     34028     34030
     34029     34030     34031     34032     34031     34033     34032     34033
     34034     34035     34034     34036     34035     34036     34037     34038
     34037     34039     34038     34039     34040     34041     34040     34042
     34041     34042     34043     34044     34043     34045     34044     34045
     34046     34047     34046     34048     34047     34048     34049     34050
     34049     34051     34050     34051     34052     34053     34052     34054
     34053     34054     34055     34056     34055     34057     34056     34057
     34058     34059     34058     34060     34059     34060     34061     34062
     34061     34063     34062     34063     34064     34065     34064     34066
     34065     34066     34067     34068     34067     34069     34068     34069
     34070     34071     34070     34072     34071     34072     34073     34074
     34073     34075     34074     34075     34076     34077     34076     34078
     34077     34078     34079     34080     34079     34081     34080     34081
     34082     34083     34082     34084     34083     34084     34085     34086
     34085     34087     34086     34087     34088     34089     34088     34090
     34089     34090     34091     34092     34091     34093     34092     34093
     34094     34095     34094     34096     34095     34096     34097     34098
     34097     34099     34098     34099     34100     34101     34100     34102
     34101     34102     34103     34104     34103     34105     34104     34105
     34106     34107     34106     34108     34107     34108     34109     34110
     34109     34111     34110     34111     34112     34113     34112     34114
     34113     34114     34115     34116     34115     34117     34116     34117
     34118     34119     34118     34120     34119     34120     34121     34122
     34121     34123     34122     34123     34124     34125     34124     34126
     34125     34126     34127     34128     34127     34129     34128     34129
     34130     34131     34130     34132     34131     34132     34133     34134
     34133     34135     34134     34135     34136     34137     34136     34138
     34137     34138     34139     34140     34139     34141     34140     34141
     34142     34143     34142     34144     34143     34144     34145     34146
     34145     34147     34146     34147     34148     34149     34148     34150
     34149     34150     34151     34152     34151     34153     34152     34153
     34154     34155     34154     34156     34155     34156     34157     34158
     34157     34159     34158     34159     34160     34161     34160     34162
     34161     34162     34163     34164     34163     34165     34164     34165
     34166     34167     34166     34168     34167     34168     34169     34170
     34169     34171     34170     34171     34172     34173     34172     34174
     34173     34174     34175     34176     34175     34177     34176     34177
     34178     34179     34178     34180     34179     34180     34181     34182
     34181     34183     34182     34183     34184     34185     34184     34186
     34185     34186     34187     34188     34187     34189     34188     34189
     34190     34191     34190     34192     34191     34192     34193     34194
     34193     34195     34194     34195     34196     34197     34196     34198
     34197     34198     34199     34200     34199     34201     34200     34201
     34202     34203     34202     34204     34203     34204     34205     34206
     34205     34207     34206     34207     34208     34209     34208     34210
     34209     34210     34211     34212     34211     34213     34212     34213
     34214     34215     34214     34216     34215     34216     34217     34218
     34217     34219     34218     34219     34220     34221     34220     34222
     34221     34222     34223     34224     34223     34225     34224     34225
     34226     34227     34226     34228     34227     34228     34229     34230
     34229     34231     34230     34231     34232     34233     34232     34234
     34233     34234     34235     34236     34235     34237     34236     34237
     34238     34239     34238     34240     34239     34240     34241     34242
     34241     34243     34242     34243     34244     34245     34244     34246
     34245     34246     34247     34248     34247     34249     34248     34249
     34250     34251     34250     34252     34251     34252     34253     34254
     34253     34255     34254     34255     34256     34257     34256     34258
     34257     34258     34259     34260     34259     34261     34260     34261
     34262     34263     34262     34264     34263     34264     34265     34266
     34265     34267     34266     34267     34268     34269     34268     34270
     34269     34270     34271     34272     34271     34273     34272     34273
     34274     34275     34274     34276     34275     34276     34277     34278
     34277     34279     34278     34279     34280     34281     34280     34282
     34281     34282     34283     34284     34283     34285     34284     34285
     34286     34287     34286     34288     34287     34288     34289     34290
     34289     34291     34290     34291     34292     34293     34292     34294
     34293     34294     34295     34296     34295     34297     34296     34297
     34298     34299     34298     34300     34299     34300     34301     34302
     34301     34303     34302     34303     34304     34305     34304     34306
     34305     34306     34307     34308     34307     34309     34308     34309
     34310     34311     34310     34312     34311     34312     34313     34314
     34313     34315     34314     34315     34316     34317     34316     34318
     34317     34318     34319     34320     34319     34321     34320     34321
     34322     34323     34322     34324     34323     34324     34325     34326
     34325     34327     34326     34327     34328     34329     34328     34330
     34329     34330     34331     34332     34331     34333     34332     34333
     34334     34335     34334     34336     34335     34336     34337     34338
     34337     34339     34338     34339     34340     34341     34340     34342
     34341     34342     34343     34344     34343     34345     34344     34345
     34346     34347     34346     34348     34347     34348     34349     34350
     34349     34351     34350     34351     34352     34353     34352     34354
     34353     34354     34355     34356     34355     34357     34356     34357
     34358     34359     34358     34360     34359     34360     34361     34362
     34361     34363     34362     34363     34364     34365     34364     34366
     34365     34366     34367     34368     34367     34369     34368     34369
     34370     34371     34370     34372     34371     34372     34373     34374
     34373     34375     34374     34375     34376     34377     34376     34378
     34377     34378     34379     34380     34379     34381     34380     34381
     34382     34383     34382     34384     34383     34384     34385     34386
     34385     34387     34386     34387     34388     34389     34388     34390
     34389     34390     34391     34392     34391     34393     34392     34393
     34394     34395     34394     34396     34395     34396     34397     34398
     34397     34399     34398     34399     34400     34401     34400     34402
     34401     34402     34403     34404     34403     34405     34404     34405
     34406     34407     34406     34408     34407     34408     34409     34410
     34409     34411     34410     34411     34412     34413     34412     34414
     34413     34414     34415     34416     34415     34417     34416     34417
     34418     34419     34418     34420     34419     34420     34421     34422
     34421     34423     34422     34423     34424     34425     34424     34426
     34425     34426     34427     34428     34427     34429     34428     34429
     34430     34431     34430     34432     34431     34432     34433     34434
     34433     34435     34434     34435     34436     34437     34436     34438
     34437     34438     34439     34440     34439     34441     34440     34441
     34442     34443     34442     34444     34443     34444     34445     34446
     34445     34447     34446     34447     34448     34449     34448     34450
     34449     34450     34451     34452     34451     34453     34452     34453
     34454     34455     34454     34456     34455     34456     34457     34458
     34457     34459     34458     34459     34460     34461     34460     34462
     34461     34462     34463     34464     34463     34465     34464     34465
     34466     34467     34466     34468     34467     34468     34469     34470
     34469     34471     34470     34471     34472     34473     34472     34474
     34473     34474     34475     34476     34475     34477     34476     34477
     34478     34479     34478     34480     34479     34480     34481     34482
     34481     34483     34482     34483     34484     34485     34484     34486
     34485     34486     34487     34488     34487     34489     34488     34489
     34490     34491     34490     34492     34491     34492     34493     34494
     34493     34495     34494     34495     34496     34497     34496     34498
     34497     34498     34499     34500     34499     34501     34500     34501
     34502     34503     34502     34504     34503     34504     34505     34506
     34505     34507     34506     34507     34508     34509     34508     34510
     34509     34510     34511     34512     34511     34513     34512     34513
     34514     34515     34514     34516     34515     34516     34517     34518
     34517     34519     34518     34519     34520     34521     34520     34522
     34521     34522     34523     34524     34523     34525     34524     34525
     34526     34527     34526     34528     34527     34528     34529     34530
     34529     34531     34530     34531     34532     34533     34532     34534
     34533     34534     34535     34536     34535     34537     34536     34537
     34538     34539     34538     34540     34539     34540     34541     34542
     34541     34543     34542     34543     34544     34545     34544     34546
     34545     34546     34547     34548     34547     34549     34548     34549
     34550     34551     34550     34552     34551     34552     34553     34554
     34553     34555     34554     34555     34556     34557     34556     34558
     34557     34558     34559     34560     34559     34561     34560     34561
     34562     34563     34562     34564     34563     34564     34565     34566
     34565     34567     34566     34567     34568     34569     34568     34570
     34569     34570     34571     34572     34571     34573     34572     34573
     34574     34575     34574     34576     34575     34576     34577     34578
     34577     34579     34578     34579     34580     34581     34580     34582
     34581     34582     34583     34584     34583     34585     34584     34585
     34586     34587     34586     34588     34587     34588     34589     34590
     34589     34591     34590     34591     34592     34593     34592     34594
     34593     34594     34595     34596     34595     34597     34596     34597
     34598     34599     34598     34600     34599     34600     34601     34602
     34601     34603     34602     34603     34604     34605     34604     34606
     34605     34606     34607     34608     34607     34609     34608     34609
     34610     34611     34610     34612     34611     34612     34613     34614
     34613     34615     34614     34615     34616     34617     34616     34618
     34617     34618     34619     34620     34619     34621     34620     34621
     34622     34623     34622     34624     34623     34624     34625     34626
     34625     34627     34626     34627     34628     34629     34628     34630
     34629     34630     34631     34632     34631     34633     34632     34633
     34634     34635     34634     34636     34635     34636     34637     34638
     34637     34639     34638     34639     34640     34641     34640     34642
     34641     34642     34643     34644     34643     34645     34644     34645
     34646     34647     34646     34648     34647     34648     34649     34650
     34649     34651     34650     34651     34652     34653     34652     34654
     34653     34654     34655     34656     34655     34657     34656     34657
     34658     34659     34658     34660     34659     34660     34661     34662
     34661     34663     34662     34663     34664     34665     34664     34666
     34665     34666     34667     34668     34667     34669     34668     34669
     34670     34671     34670     34672     34671     34672     34673     34674
     34673     34675     34674     34675     34676     34677     34676     34678
     34677     34678     34679     34680     34679     34681     34680     34681
     34682     34683     34682     34684     34683     34684     34685     34686
     34685     34687     34686     34687     34688     34689     34688     34690
     34689     34690     34691     34692     34691     34693     34692     34693
     34694     34695     34694     34696     34695     34696     34697     34698
     34697     34699     34698     34699     34700     34701     34700     34702
     34701     34702     34703     34704     34703     34705     34704     34705
     34706     34707     34706     34708     34707     34708     34709     34710
     34709     34711     34710     34711     34712     34713     34712     34714
     34713     34714     34715     34716     34715     34717     34716     34717
     34718     34719     34718     34720     34719     34720     34721     34722
     34721     34723     34722     34723     34724     34725     34724     34726
     34725     34726     34727     34728     34727     34729     34728     34729
     34730     34731     34730     34732     34731     34732     34733     34734
     34733     34735     34734     34735     34736     34737     34736     34738
     34737     34738     34739     34740     34739     34741     34740     34741
     34742     34743     34742     34744     34743     34744     34745     34746
     34745     34747     34746     34747     34748     34749     34748     34750
     34749     34750     34751     34752     34751     34753     34752     34753
     34754     34755     34754     34756     34755     34756     34757     34758
     34757     34759     34758     34759     34760     34761     34760     34762
     34761     34762     34763     34764     34763     34765     34764     34765
     34766     34767     34766     34768     34767     34768     34769     34770
     34769     34771     34770     34771     34772     34773     34772     34774
     34773     34774     34775     34776     34775     34777     34776     34777
     34778     34779     34778     34780     34779     34780     34781     34782
     34781     34783     34782     34783     34784     34785     34784     34786
     34785     34786     34787     34788     34787     34789     34788     34789
     34790     34791     34790     34792     34791     34792     34793     34794
     34793     34795     34794     34795     34796     34797     34796     34798
     34797     34798     34799     34800     34799     34801     34800     34801
     34802     34803     34802     34804     34803     34804     34805     34806
     34805     34807     34806     34807     34808     34809     34808     34810
     34809     34810     34811     34812     34811     34813     34812     34813
     34814     34815     34814     34816     34815     34816     34817     34818
     34817     34819     34818     34819     34820     34821     34820     34822
     34821     34822     34823     34824     34823     34825     34824     34825
     34826     34827     34826     34828     34827     34828     34829     34830
     34829     34831     34830     34831     34832     34833     34832     34834
     34833     34834     34835     34836     34835     34837     34836     34837
     34838     34839     34838     34840     34839     34840     34841     34842
     34841     34843     34842     34843     34844     34845     34844     34846
     34845     34846     34847     34848     34847     34849     34848     34849
     34850     34851     34850     34852     34851     34852     34853     34854
     34853     34855     34854     34855     34856     34857     34856     34858
     34857     34858     34859     34860     34859     34861     34860     34861
     34862     34863     34862     34864     34863     34864     34865     34866
     34865     34867     34866     34867     34868     34869     34868     34870
     34869     34870     34871     34872     34871     34873     34872     34873
     34874     34875     34874     34876     34875     34876     34877     34878
     34877     34879     34878     34879     34880     34881     34880     34882
     34881     34882     34883     34884     34883     34885     34884     34885
     34886     34887     34886     34888     34887     34888     34889     34890
     34889     34891     34890     34891     34892     34893     34892     34894
     34893     34894     34895     34896     34895     34897     34896     34897
     34898     34899     34898     34900     34899     34900     34901     34902
     34901     34903     34902     34903     34904     34905     34904     34906
     34905     34906     34907     34908     34907     34909     34908     34909
     34910     34911     34910     34912     34911     34912     34913     34914
     34913     34915     34914     34915     34916     34917     34916     34918
     34917     34918     34919     34920     34919     34921     34920     34921
     34922     34923     34922     34924     34923     34924     34925     34926
     34925     34927     34926     34927     34928     34929     34928     34930
     34929     34930     34931     34932     34931     34933     34932     34933
     34934     34935     34934     34936     34935     34936     34937     34938
     34937     34939     34938     34939     34940     34941     34940     34942
     34941     34942     34943     34944     34943     34945     34944     34945
     34946     34947     34946     34948     34947     34948     34949     34950
     34949     34951     34950     34951     34952     34953     34952     34954
     34953     34954     34955     34956     34955     34957     34956     34957
     34958     34959     34958     34960     34959     34960     34961     34962
     34961     34963     34962     34963     34964     34965     34964     34966
     34965     34966     34967     34968     34967     34969     34968     34969
     34970     34971     34970     34972     34971     34972     34973     34974
     34973     34975     34974     34975     34976     34977     34976     34978
     34977     34978     34979     34980     34979     34981     34980     34981
     34982     34983     34982     34984     34983     34984     34985     34986
     34985     34987     34986     34987     34988     34989     34988     34990
     34989     34990     34991     34992     34991     34993     34992     34993
     34994     34995     34994     34996     34995     34996     34997     34998
     34997     34999     34998     34999     35000     35001     35000     35002
     35001     35002     35003     35004     35003     35005     35004     35005
     35006     35007     35006     35008     35007     35008     35009     35010
     35009     35011     35010     35011     35012     35013     35012     35014
     35013     35014     35015     35016     35015     35017     35016     35017
     35018     35019     35018     35020     35019     35020     35021     35022
     35021     35023     35022     35023     35024     35025     35024     35026
     35025     35026     35027     35028     35027     35029     35028     35029
     35030     35031     35030     35032     35031     35032     35033     35034
     35033     35035     35034     35035     35036     35037     35036     35038
     35037     35038     35039     35040     35039     35041     35040     35041
     35042     35043     35042     35044     35043     35044     35045     35046
     35045     35047     35046     35047     35048     35049     35048     35050
     35049     35050     35051     35052     35051     35053     35052     35053
     35054     35055     35054     35056     35055     35056     35057     35058
     35057     35059     35058     35059     35060     35061     35060     35062
     35061     35062     35063     35064     35063     35065     35064     35065
     35066     35067     35066     35068     35067     35068     35069     35070
     35069     35071     35070     35071     35072     35073     35072     35074
     35073     35074     35075     35076     35075     35077     35076     35077
     35078     35079     35078     35080     35079     35080     35081     35082
     35081     35083     35082     35083     35084     35085     35084     35086
     35085     35086     35087     35088     35087     35089     35088     35089
     35090     35091     35090     35092     35091     35092     35093     35094
     35093     35095     35094     35095     35096     35097     35096     35098
     35097     35098     35099     35100     35099     35101     35100     35101
     35102     35103     35102     35104     35103     35104     35105     35106
     35105     35107     35106     35107     35108     35109     35108     35110
     35109     35110     35111     35112     35111     35113     35112     35113
     35114     35115     35114     35116     35115     35116     35117     35118
     35117     35119     35118     35119     35120     35121     35120     35122
     35121     35122     35123     35124     35123     35125     35124     35125
     35126     35127     35126     35128     35127     35128     35129     35130
     35129     35131     35130     35131     35132     35133     35132     35134
     35133     35134     35135     35136     35135     35137     35136     35137
     35138     35139     35138     35140     35139     35140     35141     35142
     35141     35143     35142     35143     35144     35145     35144     35146
     35145     35146     35147     35148     35147     35149     35148     35149
     35150     35151     35150     35152     35151     35152     35153     35154
     35153     35155     35154     35155     35156     35157     35156     35158
     35157     35158     35159     35160     35159     35161     35160     35161
     35162     35163     35162     35164     35163     35164     35165     35166
     35165     35167     35166     35167     35168     35169     35168     35170
     35169     35170     35171     35172     35171     35173     35172     35173
     35174     35175     35174     35176     35175     35176     35177     35178
     35177     35179     35178     35179     35180     35181     35180     35182
     35181     35182     35183     35184     35183     35185     35184     35185
     35186     35187     35186     35188     35187     35188     35189     35190
     35189     35191     35190     35191     35192     35193     35192     35194
     35193     35194     35195     35196     35195     35197     35196     35197
     35198     35199     35198     35200     35199     35200

     39022 !NTHETA: angles
         2         1         3         2         1         4         2         1         5
         3         1         4         3         1         5         4         1         5
         1         5         6         1         5         7         1         5        15
         6         5         7         6         5        15         7         5        15
         5         7         8         5         7         9         5         7        10
         8         7         9         8         7        10         9         7        10
         7        10        11         7        10        12        11        10        12
        10        12        13        10        12        14        13        12        14
         5        15        16         5        15        17        16        15        17
        15        17        18        15        17        19        18        17        19
        17        19        20        17        19        21        17        19        29
        20        19        21        20        19        29        21        19        29
        19        21        22        19        21        23        19        21        24
        22        21        23        22        21        24        23        21        24
        21        24        25        21        24        26        25        24        26
        24        26        27        24        26        28        27        26        28
        19        29        30        19        29        31        30        29        31
        29        31        32        29        31        33        32        31        33
        31        33        34        31        33        35        31        33        53
        34        33        35        34        33        53        35        33        53
        33        35        36        33        35        37        33        35        38
        36        35        37        36        35        38        37        35        38
        35        38        39        35        38        40        35        38        41
        39        38        40        39        38        41        40        38        41
        38        41        42        38        41        43        38        41        44
        42        41        43        42        41        44        43        41        44
        41        44        45        41        44        46        45        44        46
        44        46        47        44        46        50        47        46        50
        46        47        48        46        47        49        48        47        49
        46        50        51        46        50        52        51        50        52
        33        53        54        33        53        55        54        53        55
        53        55        56        53        55        59        56        55        59
        55        56        57        55        56        58        55        56        64
        57        56        58        57        56        64        58        56        64
        55        59        60        55        59        61        55        59        67
        60        59        61        60        59        67        61        59        67
        59        61        62        59        61        63        59        61        64
        62        61        63        62        61        64        63        61        64
        56        64        61        56        64        65        56        64        66
        61        64        65        61        64        66        65        64        66
        59        67        68        59        67        69        68        67        69
        67        69        70        67        69        71        70        69        71
        69        71        72        69        71        73        69        71        81
        72        71        73        72        71        81        73        71        81
        71        73        74        71        73        75        71        73        76
        74        73        75        74        73        76        75        73        76
        73        76        77        73        76        78        77        76        78
        76        78        79        76        78        80        79        78        80
        71        81        82        71        81        83        82        81        83
        81        83        84        81        83        87        84        83        87
        83        84        85        83        84        86        83        84        92
        85        84        86        85        84        92        86        84        92
        83        87        88        83        87        89        83        87        95
        88        87        89        88        87        95        89        87        95
        87        89        90        87        89        91        87        89        92
        90        89        91        90        89        92        91        89        92
        84        92        89        84        92        93        84        92        94
        89        92        93        89        92        94        93        92        94
        87        95        96        87        95        97        96        95        97
        99        98       102        99        98       106        99        98       110
       102        98       106       102        98       110       106        98       110
        98        99       100        98        99       101        98        99       114
       100        99       101       100        99       114       101        99       114
        98       102       103        98       102       104        98       102       105
       103       102       104       103       102       105       104       102       105
        98       106       107        98       106       108        98       106       109
       107       106       108       107       106       109       108       106       109
        98       110       111        98       110       112        98       110       113
       111       110       112       111       110       113       112       110       113
        99       114       115        99       114       116        99       114       120
       115       114       116       115       114       120       116       114       120
       118       117       119       118       117       120       118       117       121
       119       117       120       119       117       121       120       117       121
       114       120       117       117       121       122       121       122       123
       121       122       124       121       122       125       123       122       124
       123       122       125       124       122       125       122       125       126
       122       125       127       122       125       133       126       125       127
       126       125       133       127       125       133       125       127       128
       127       128       129       127       128       130       129       128       130
       128       130       131       128       130       132       128       130       142
       131       130       132       131       130       142       132       130       142
       125       133       134       125       133       135       125       133       136
       134       133       135       134       133       136       135       133       136
       133       136       137       136       137       138       136       137       139
       138       137       139       137       139       140       137       139       141
       137       139       189       140       139       141       140       139       189
       141       139       189       130       142       143       130       142       144
       130       142       145       143       142       144       143       142       145
       144       142       145       142       145       146       142       145       147
       142       145       148       146       145       147       146       145       148
       147       145       148       145       148       149       145       148       150
       145       148       151       149       148       150       149       148       151
       150       148       151       148       151       152       148       151       153
       148       151       154       152       151       153       152       151       154
       153       151       154       151       154       155       151       154       156
       151       154       157       155       154       156       155       154       157
       156       154       157       154       157       158       154       157       159
       154       157       160       158       157       159       158       157       160
       159       157       160       157       160       161       157       160       162
       161       160       162       160       162       163       160       162       164
       163       162       164       162       164       165       162       164       166
       162       164       167       165       164       166       165       164       167
       166       164       167       164       167       168       164       167       169
       164       167       170       168       167       169       168       167       170
       169       167       170       167       170       171       167       170       172
       167       170       173       171       170       172       171       170       173
       172       170       173       170       173       174       170       173       175
       170       173       176       174       173       175       174       173       176
       175       173       176       173       176       177       173       176       178
       173       176       179       177       176       178       177       176       179
       178       176       179       176       179       180       176       179       181
       176       179       182       180       179       181       180       179       182
       181       179       182       179       182       183       179       182       184
       179       182       185       183       182       184       183       182       185
       184       182       185       182       185       186       182       185       187
       182       185       188       186       185       187       186       185       188
       187       185       188       139       189       190       139       189       191
       139       189       192       190       189       191       190       189       192
       191       189       192       189       192       193       189       192       194
       189       192       195       193       192       194       193       192       195
       194       192       195       192       195       196       192       195       197
       192       195       198       196       195       197       196       195       198
       197       195       198       195       198       199       195       198       200
       195       198       201       199       198       200       199       198       201
       200       198       201       198       201       202       198       201       203
       198       201       204       202       201       203       202       201       204
       203       201       204       201       204       205       201       204       206
       201       204       207       205       204       206       205       204       207
       206       204       207       204       207       208       204       207       209
       204       207       210       208       207       209       208       207       210
       209       207       210       207       210       211       207       210       212
       207       210       213       211       210       212       211       210       213
       212       210       213       210       213       214       210       213       215
       210       213       216       214       213       215       214       213       216
       215       213       216       213       216       217       213       216       218
       213       216       219       217       216       218       217       216       219
       218       216       219       216       219       220       216       219       221
       216       219       222       220       219       221       220       219       222
       221       219       222       219       222       223       219       222       224
       219       222       225       223       222       224       223       222       225
       224       222       225       222       225       226       222       225       227
       222       225       228       226       225       227       226       225       228
       227       225       228       225       228       229       225       228       230
       225       228       231       229       228       230       229       228       231
       230       228       231       233       232       236       233       232       240
       233       232       244       236       232       240       236       232       244
       240       232       244       232       233       234       232       233       235
       232       233       248       234       233       235       234       233       248
       235       233       248       232       236       237       232       236       238
       232       236       239       237       236       238       237       236       239
       238       236       239       232       240       241       232       240       242
       232       240       243       241       240       242       241       240       243
       242       240       243       232       244       245       232       244       246
       232       244       247       245       244       246       245       244       247
       246       244       247       233       248       249       233       248       250
       233       248       254       249       248       250       249       248       254
       250       248       254       252       251       253       252       251       254
       252       251       255       253       251       254       253       251       255
       254       251       255       248       254       251       251       255       256
       255       256       257       255       256       258       255       256       259
       257       256       258       257       256       259       258       256       259
       256       259       260       256       259       261       256       259       267
       260       259       261       260       259       267       261       259       267
       259       261       262       261       262       263       261       262       264
       263       262       264       262       264       265       262       264       266
       262       264       276       265       264       266       265       264       276
       266       264       276       259       267       268       259       267       269
       259       267       270       268       267       269       268       267       270
       269       267       270       267       270       271       270       271       272
       270       271       273       272       271       273       271       273       274
       271       273       275       271       273       323       274       273       275
       274       273       323       275       273       323       264       276       277
       264       276       278       264       276       279       277       276       278
       277       276       279       278       276       279       276       279       280
       276       279       281       276       279       282       280       279       281
       280       279       282       281       279       282       279       282       283
       279       282       284       279       282       285       283       282       284
       283       282       285       284       282       285       282       285       286
       282       285       287       282       285       288       286       285       287
       286       285       288       287       285       288       285       288       289
       285       288       290       285       288       291       289       288       290
       289       288       291       290       288       291       288       291       292
       288       291       293       288       291       294       292       291       293
       292       291       294       293       291       294       291       294       295
       291       294       296       295       294       296       294       296       297
       294       296       298       297       296       298       296       298       299
       296       298       300       296       298       301       299       298       300
       299       298       301       300       298       301       298       301       302
       298       301       303       298       301       304       302       301       303
       302       301       304       303       301       304       301       304       305
       301       304       306       301       304       307       305       304       306
       305       304       307       306       304       307       304       307       308
       304       307       309       304       307       310       308       307       309
       308       307       310       309       307       310       307       310       311
       307       310       312       307       310       313       311       310       312
       311       310       313       312       310       313       310       313       314
       310       313       315       310       313       316       314       313       315
       314       313       316       315       313       316       313       316       317
       313       316       318       313       316       319       317       316       318
       317       316       319       318       316       319       316       319       320
       316       319       321       316       319       322       320       319       321
       320       319       322       321       319       322       273       323       324
       273       323       325       273       323       326       324       323       325
       324       323       326       325       323       326       323       326       327
       323       326       328       323       326       329       327       326       328
       327       326       329       328       326       329       326       329       330
       326       329       331       326       329       332       330       329       331
       330       329       332       331       329       332       329       332       333
       329       332       334       329       332       335       333       332       334
       333       332       335       334       332       335       332       335       336
       332       335       337       332       335       338       336       335       337
       336       335       338       337       335       338       335       338       339
       335       338       340       335       338       341       339       338       340
       339       338       341       340       338       341       338       341       342
       338       341       343       338       341       344       342       341       343
       342       341       344       343       341       344       341       344       345
       341       344       346       341       344       347       345       344       346
       345       344       347       346       344       347       344       347       348
       344       347       349       344       347       350       348       347       349
       348       347       350       349       347       350       347       350       351
       347       350       352       347       350       353       351       350       352
       351       350       353       352       350       353       350       353       354
       350       353       355       350       353       356       354       353       355
       354       353       356       355       353       356       353       356       357
       353       356       358       353       356       359       357       356       358
       357       356       359       358       356       359       356       359       360
       356       359       361       356       359       362       360       359       361
       360       359       362       361       359       362       359       362       363
       359       362       364       359       362       365       363       362       364
       363       362       365       364       362       365       367       366       370
       367       366       374       367       366       378       370       366       374
       370       366       378       374       366       378       366       367       368
       366       367       369       366       367       382       368       367       369
       368       367       382       369       367       382       366       370       371
       366       370       372       366       370       373       371       370       372
       371       370       373       372       370       373       366       374       375
       366       374       376       366       374       377       375       374       376
       375       374       377       376       374       377       366       378       379
       366       378       380       366       378       381       379       378       380
       379       378       381       380       378       381       367       382       383
       367       382       384       367       382       388       383       382       384
       383       382       388       384       382       388       386       385       387
       386       385       388       386       385       389       387       385       388
       387       385       389       388       385       389       382       388       385
       385       389       390       389       390       391       389       390       392
       389       390       393       391       390       392       391       390       393
       392       390       393       390       393       394       390       393       395
       390       393       401       394       393       395       394       393       401
       395       393       401       393       395       396       395       396       397
       395       396       398       397       396       398       396       398       399
       396       398       400       396       398       410       399       398       400
       399       398       410       400       398       410       393       401       402
       393       401       403       393       401       404       402       401       403
       402       401       404       403       401       404       401       404       405
       404       405       406       404       405       407       406       405       407
       405       407       408       405       407       409       405       407       457
       408       407       409       408       407       457       409       407       457
       398       410       411       398       410       412       398       410       413
       411       410       412       411       410       413       412       410       413
       410       413       414       410       413       415       410       413       416
       414       413       415       414       413       416       415       413       416
       413       416       417       413       416       418       413       416       419
       417       416       418       417       416       419       418       416       419
       416       419       420       416       419       421       416       419       422
       420       419       421       420       419       422       421       419       422
       419       422       423       419       422       424       419       422       425
       423       422       424       423       422       425       424       422       425
       422       425       426       422       425       427       422       425       428
       426       425       427       426       425       428       427       425       428
       425       428       429       425       428       430       429       428       430
       428       430       431       428       430       432       431       430       432
       430       432       433       430       432       434       430       432       435
       433       432       434       433       432       435       434       432       435
       432       435       436       432       435       437       432       435       438
       436       435       437       436       435       438       437       435       438
       435       438       439       435       438       440       435       438       441
       439       438       440       439       438       441       440       438       441
       438       441       442       438       441       443       438       441       444
       442       441       443       442       441       444       443       441       444
       441       444       445       441       444       446       441       444       447
       445       444       446       445       444       447       446       444       447
       444       447       448       444       447       449       444       447       450
       448       447       449       448       447       450       449       447       450
       447       450       451       447       450       452       447       450       453
       451       450       452       451       450       453       452       450       453
       450       453       454       450       453       455       450       453       456
       454       453       455       454       453       456       455       453       456
       407       457       458       407       457       459       407       457       460
       458       457       459       458       457       460       459       457       460
       457       460       461       457       460       462       457       460       463
       461       460       462       461       460       463       462       460       463
       460       463       464       460       463       465       460       463       466
       464       463       465       464       463       466       465       463       466
       463       466       467       463       466       468       463       466       469
       467       466       468       467       466       469       468       466       469
       466       469       470       466       469       471       466       469       472
       470       469       471       470       469       472       471       469       472
       469       472       473       469       472       474       469       472       475
       473       472       474       473       472       475       474       472       475
       472       475       476       472       475       477       472       475       478
       476       475       477       476       475       478       477       475       478
       475       478       479       475       478       480       475       478       481
       479       478       480       479       478       481       480       478       481
       478       481       482       478       481       483       478       481       484
       482       481       483       482       481       484       483       481       484
       481       484       485       481       484       486       481       484       487
       485       484       486       485       484       487       486       484       487
       484       487       488       484       487       489       484       487       490
       488       487       489       488       487       490       489       487       490
       487       490       491       487       490       492       487       490       493
       491       490       492       491       490       493       492       490       493
       490       493       494       490       493       495       490       493       496
       494       493       495       494       493       496       495       493       496
       493       496       497       493       496       498       493       496       499
       497       496       498       497       496       499       498       496       499
       501       500       504       501       500       508       501       500       512
       504       500       508       504       500       512       508       500       512
       500       501       502       500       501       503       500       501       516
       502       501       503       502       501       516       503       501       516
       500       504       505       500       504       506       500       504       507
       505       504       506       505       504       507       506       504       507
       500       508       509       500       508       510       500       508       511
       509       508       510       509       508       511       510       508       511
       500       512       513       500       512       514       500       512       515
       513       512       514       513       512       515       514       512       515
       501       516       517       501       516       518       501       516       522
       517       516       518       517       516       522       518       516       522
       520       519       521       520       519       522       520       519       523
       521       519       522       521       519       523       522       519       523
       516       522       519       519       523       524       523       524       525
       523       524       526       523       524       527       525       524       526
       525       524       527       526       524       527       524       527       528
       524       527       529       524       527       535       528       527       529
       528       527       535       529       527       535       527       529       530
       529       530       531       529       530       532       531       530       532
       530       532       533       530       532       534       530       532       544
       533       532       534       533       532       544       534       532       544
       527       535       536       527       535       537       527       535       538
       536       535       537       536       535       538       537       535       538
       535       538       539       538       539       540       538       539       541
       540       539       541       539       541       542       539       541       543
       539       541       591       542       541       543       542       541       591
       543       541       591       532       544       545       532       544       546
       532       544       547       545       544       546       545       544       547
       546       544       547       544       547       548       544       547       549
       544       547       550       548       547       549       548       547       550
       549       547       550       547       550       551       547       550       552
       547       550       553       551       550       552       551       550       553
       552       550       553       550       553       554       550       553       555
       550       553       556       554       553       555       554       553       556
       555       553       556       553       556       557       553       556       558
       553       556       559       557       556       558       557       556       559
       558       556       559       556       559       560       556       559       561
       556       559       562       560       559       561       560       559       562
       561       559       562       559       562       563       559       562       564
       563       562       564       562       564       565       562       564       566
       565       564       566       564       566       567       564       566       568
       564       566       569       567       566       568       567       566       569
       568       566       569       566       569       570       566       569       571
       566       569       572       570       569       571       570       569       572
       571       569       572       569       572       573       569       572       574
       569       572       575       573       572       574       573       572       575
       574       572       575       572       575       576       572       575       577
       572       575       578       576       575       577       576       575       578
       577       575       578       575       578       579       575       578       580
       575       578       581       579       578       580       579       578       581
       580       578       581       578       581       582       578       581       583
       578       581       584       582       581       583       582       581       584
       583       581       584       581       584       585       581       584       586
       581       584       587       585       584       586       585       584       587
       586       584       587       584       587       588       584       587       589
       584       587       590       588       587       589       588       587       590
       589       587       590       541       591       592       541       591       593
       541       591       594       592       591       593       592       591       594
       593       591       594       591       594       595       591       594       596
       591       594       597       595       594       596       595       594       597
       596       594       597       594       597       598       594       597       599
       594       597       600       598       597       599       598       597       600
       599       597       600       597       600       601       597       600       602
       597       600       603       601       600       602       601       600       603
       602       600       603       600       603       604       600       603       605
       600       603       606       604       603       605       604       603       606
       605       603       606       603       606       607       603       606       608
       603       606       609       607       606       608       607       606       609
       608       606       609       606       609       610       606       609       611
       606       609       612       610       609       611       610       609       612
       611       609       612       609       612       613       609       612       614
       609       612       615       613       612       614       613       612       615
       614       612       615       612       615       616       612       615       617
       612       615       618       616       615       617       616       615       618
       617       615       618       615       618       619       615       618       620
       615       618       621       619       618       620       619       618       621
       620       618       621       618       621       622       618       621       623
       618       621       624       622       621       623       622       621       624
       623       621       624       621       624       625       621       624       626
       621       624       627       625       624       626       625       624       627
       626       624       627       624       627       628       624       627       629
       624       627       630       628       627       629       628       627       630
       629       627       630       627       630       631       627       630       632
       627       630       633       631       630       632       631       630       633
       632       630       633       635       634       638       635       634       642
       635       634       646       638       634       642       638       634       646
       642       634       646       634       635       636       634       635       637
       634       635       650       636       635       637       636       635       650
       637       635       650       634       638       639       634       638       640
       634       638       641       639       638       640       639       638       641
       640       638       641       634       642       643       634       642       644
       634       642       645       643       642       644       643       642       645
       644       642       645       634       646       647       634       646       648
       634       646       649       647       646       648       647       646       649
       648       646       649       635       650       651       635       650       652
       635       650       656       651       650       652       651       650       656
       652       650       656       654       653       655       654       653       656
       654       653       657       655       653       656       655       653       657
       656       653       657       650       656       653       653       657       658
       657       658       659       657       658       660       657       658       661
       659       658       660       659       658       661       660       658       661
       658       661       662       658       661       663       658       661       669
       662       661       663       662       661       669       663       661       669
       661       663       664       663       664       665       663       664       666
       665       664       666       664       666       667       664       666       668
       664       666       678       667       666       668       667       666       678
       668       666       678       661       669       670       661       669       671
       661       669       672       670       669       671       670       669       672
       671       669       672       669       672       673       672       673       674
       672       673       675       674       673       675       673       675       676
       673       675       677       673       675       725       676       675       677
       676       675       725       677       675       725       666       678       679
       666       678       680       666       678       681       679       678       680
       679       678       681       680       678       681       678       681       682
       678       681       683       678       681       684       682       681       683
       682       681       684       683       681       684       681       684       685
       681       684       686       681       684       687       685       684       686
       685       684       687       686       684       687       684       687       688
       684       687       689       684       687       690       688       687       689
       688       687       690       689       687       690       687       690       691
       687       690       692       687       690       693       691       690       692
       691       690       693       692       690       693       690       693       694
       690       693       695       690       693       696       694       693       695
       694       693       696       695       693       696       693       696       697
       693       696       698       697       696       698       696       698       699
       696       698       700       699       698       700       698       700       701
       698       700       702       698       700       703       701       700       702
       701       700       703       702       700       703       700       703       704
       700       703       705       700       703       706       704       703       705
       704       703       706       705       703       706       703       706       707
       703       706       708       703       706       709       707       706       708
       707       706       709       708       706       709       706       709       710
       706       709       711       706       709       712       710       709       711
       710       709       712       711       709       712       709       712       713
       709       712       714       709       712       715       713       712       714
       713       712       715       714       712       715       712       715       716
       712       715       717       712       715       718       716       715       717
       716       715       718       717       715       718       715       718       719
       715       718       720       715       718       721       719       718       720
       719       718       721       720       718       721       718       721       722
       718       721       723       718       721       724       722       721       723
       722       721       724       723       721       724       675       725       726
       675       725       727       675       725       728       726       725       727
       726       725       728       727       725       728       725       728       729
       725       728       730       725       728       731       729       728       730
       729       728       731       730       728       731       728       731       732
       728       731       733       728       731       734       732       731       733
       732       731       734       733       731       734       731       734       735
       731       734       736       731       734       737       735       734       736
       735       734       737       736       734       737       734       737       738
       734       737       739       734       737       740       738       737       739
       738       737       740       739       737       740       737       740       741
       737       740       742       737       740       743       741       740       742
       741       740       743       742       740       743       740       743       744
       740       743       745       740       743       746       744       743       745
       744       743       746       745       743       746       743       746       747
       743       746       748       743       746       749       747       746       748
       747       746       749       748       746       749       746       749       750
       746       749       751       746       749       752       750       749       751
       750       749       752       751       749       752       749       752       753
       749       752       754       749       752       755       753       752       754
       753       752       755       754       752       755       752       755       756
       752       755       757       752       755       758       756       755       757
       756       755       758       757       755       758       755       758       759
       755       758       760       755       758       761       759       758       760
       759       758       761       760       758       761       758       761       762
       758       761       763       758       761       764       762       761       763
       762       761       764       763       761       764       761       764       765
       761       764       766       761       764       767       765       764       766
       765       764       767       766       764       767       769       768       772
       769       768       776       769       768       780       772       768       776
       772       768       780       776       768       780       768       769       770
       768       769       771       768       769       784       770       769       771
       770       769       784       771       769       784       768       772       773
       768       772       774       768       772       775       773       772       774
       773       772       775       774       772       775       768       776       777
       768       776       778       768       776       779       777       776       778
       777       776       779       778       776       779       768       780       781
       768       780       782       768       780       783       781       780       782
       781       780       783       782       780       783       769       784       785
       769       784       786       769       784       790       785       784       786
       785       784       790       786       784       790       788       787       789
       788       787       790       788       787       791       789       787       790
       789       787       791       790       787       791       784       790       787
       787       791       792       791       792       793       791       792       794
       791       792       795       793       792       794       793       792       795
       794       792       795       792       795       796       792       795       797
       792       795       803       796       795       797       796       795       803
       797       795       803       795       797       798       797       798       799
       797       798       800       799       798       800       798       800       801
       798       800       802       798       800       812       801       800       802
       801       800       812       802       800       812       795       803       804
       795       803       805       795       803       806       804       803       805
       804       803       806       805       803       806       803       806       807
       806       807       808       806       807       809       808       807       809
       807       809       810       807       809       811       807       809       859
       810       809       811       810       809       859       811       809       859
       800       812       813       800       812       814       800       812       815
       813       812       814       813       812       815       814       812       815
       812       815       816       812       815       817       812       815       818
       816       815       817       816       815       818       817       815       818
       815       818       819       815       818       820       815       818       821
       819       818       820       819       818       821       820       818       821
       818       821       822       818       821       823       818       821       824
       822       821       823       822       821       824       823       821       824
       821       824       825       821       824       826       821       824       827
       825       824       826       825       824       827       826       824       827
       824       827       828       824       827       829       824       827       830
       828       827       829       828       827       830       829       827       830
       827       830       831       827       830       832       831       830       832
       830       832       833       830       832       834       833       832       834
       832       834       835       832       834       836       832       834       837
       835       834       836       835       834       837       836       834       837
       834       837       838       834       837       839       834       837       840
       838       837       839       838       837       840       839       837       840
       837       840       841       837       840       842       837       840       843
       841       840       842       841       840       843       842       840       843
       840       843       844       840       843       845       840       843       846
       844       843       845       844       843       846       845       843       846
       843       846       847       843       846       848       843       846       849
       847       846       848       847       846       849       848       846       849
       846       849       850       846       849       851       846       849       852
       850       849       851       850       849       852       851       849       852
       849       852       853       849       852       854       849       852       855
       853       852       854       853       852       855       854       852       855
       852       855       856       852       855       857       852       855       858
       856       855       857       856       855       858       857       855       858
       809       859       860       809       859       861       809       859       862
       860       859       861       860       859       862       861       859       862
       859       862       863       859       862       864       859       862       865
       863       862       864       863       862       865       864       862       865
       862       865       866       862       865       867       862       865       868
       866       865       867       866       865       868       867       865       868
       865       868       869       865       868       870       865       868       871
       869       868       870       869       868       871       870       868       871
       868       871       872       868       871       873       868       871       874
       872       871       873       872       871       874       873       871       874
       871       874       875       871       874       876       871       874       877
       875       874       876       875       874       877       876       874       877
       874       877       878       874       877       879       874       877       880
       878       877       879       878       877       880       879       877       880
       877       880       881       877       880       882       877       880       883
       881       880       882       881       880       883       882       880       883
       880       883       884       880       883       885       880       883       886
       884       883       885       884       883       886       885       883       886
       883       886       887       883       886       888       883       886       889
       887       886       888       887       886       889       888       886       889
       886       889       890       886       889       891       886       889       892
       890       889       891       890       889       892       891       889       892
       889       892       893       889       892       894       889       892       895
       893       892       894       893       892       895       894       892       895
       892       895       896       892       895       897       892       895       898
       896       895       897       896       895       898       897       895       898
       895       898       899       895       898       900       895       898       901
       899       898       900       899       898       901       900       898       901
       903       902       904       903       902       905       903       902       906
       904       902       905       904       902       906       905       902       906
       902       906       907       902       906       908       902       906       911
       907       906       908       907       906       911       908       906       911
       906       908       909       906       908       910       909       908       910
       906       911       912       906       911       913       906       911       917
       912       911       913       912       911       917       913       911       917
       915       914       916       915       914       917       915       914       918
       916       914       917       916       914       918       917       914       918
       911       917       914       914       918       919       918       919       920
       918       919       921       918       919       922       920       919       921
       920       919       922       921       919       922       919       922       923
       919       922       924       919       922       930       923       922       924
       923       922       930       924       922       930       922       924       925
       924       925       926       924       925       927       926       925       927
       925       927       928       925       927       929       925       927       939
       928       927       929       928       927       939       929       927       939
       922       930       931       922       930       932       922       930       933
       931       930       932       931       930       933       932       930       933
       930       933       934       933       934       935       933       934       936
       935       934       936       934       936       937       934       936       938
       934       936       986       937       936       938       937       936       986
       938       936       986       927       939       940       927       939       941
       927       939       942       940       939       941       940       939       942
       941       939       942       939       942       943       939       942       944
       939       942       945       943       942       944       943       942       945
       944       942       945       942       945       946       942       945       947
       942       945       948       946       945       947       946       945       948
       947       945       948       945       948       949       945       948       950
       945       948       951       949       948       950       949       948       951
       950       948       951       948       951       952       948       951       953
       948       951       954       952       951       953       952       951       954
       953       951       954       951       954       955       951       954       956
       951       954       957       955       954       956       955       954       957
       956       954       957       954       957       958       954       957       959
       958       957       959       957       959       960       957       959       961
       960       959       961       959       961       962       959       961       963
       959       961       964       962       961       963       962       961       964
       963       961       964       961       964       965       961       964       966
       961       964       967       965       964       966       965       964       967
       966       964       967       964       967       968       964       967       969
       964       967       970       968       967       969       968       967       970
       969       967       970       967       970       971       967       970       972
       967       970       973       971       970       972       971       970       973
       972       970       973       970       973       974       970       973       975
       970       973       976       974       973       975       974       973       976
       975       973       976       973       976       977       973       976       978
       973       976       979       977       976       978       977       976       979
       978       976       979       976       979       980       976       979       981
       976       979       982       980       979       981       980       979       982
       981       979       982       979       982       983       979       982       984
       979       982       985       983       982       984       983       982       985
       984       982       985       936       986       987       936       986       988
       936       986       989       987       986       988       987       986       989
       988       986       989       986       989       990       986       989       991
       986       989       992       990       989       991       990       989       992
       991       989       992       989       992       993       989       992       994
       989       992       995       993       992       994       993       992       995
       994       992       995       992       995       996       992       995       997
       992       995       998       996       995       997       996       995       998
       997       995       998       995       998       999       995       998      1000
       995       998      1001       999       998      1000       999       998      1001
      1000       998      1001       998      1001      1002       998      1001      1003
       998      1001      1004      1002      1001      1003      1002      1001      1004
      1003      1001      1004      1001      1004      1005      1001      1004      1006
      1001      1004      1007      1005      1004      1006      1005      1004      1007
      1006      1004      1007      1004      1007      1008      1004      1007      1009
      1004      1007      1010      1008      1007      1009      1008      1007      1010
      1009      1007      1010      1007      1010      1011      1007      1010      1012
      1007      1010      1013      1011      1010      1012      1011      1010      1013
      1012      1010      1013      1010      1013      1014      1010      1013      1015
      1010      1013      1016      1014      1013      1015      1014      1013      1016
      1015      1013      1016      1013      1016      1017      1013      1016      1018
      1013      1016      1019      1017      1016      1018      1017      1016      1019
      1018      1016      1019      1016      1019      1020      1016      1019      1021
      1016      1019      1022      1020      1019      1021      1020      1019      1022
      1021      1019      1022      1019      1022      1023      1019      1022      1024
      1019      1022      1025      1023      1022      1024      1023      1022      1025
      1024      1022      1025      1022      1025      1026      1022      1025      1027
      1022      1025      1028      1026      1025      1027      1026      1025      1028
      1027      1025      1028      1030      1029      1033      1030      1029      1037
      1030      1029      1041      1033      1029      1037      1033      1029      1041
      1037      1029      1041      1029      1030      1031      1029      1030      1032
      1029      1030      1045      1031      1030      1032      1031      1030      1045
      1032      1030      1045      1029      1033      1034      1029      1033      1035
      1029      1033      1036      1034      1033      1035      1034      1033      1036
      1035      1033      1036      1029      1037      1038      1029      1037      1039
      1029      1037      1040      1038      1037      1039      1038      1037      1040
      1039      1037      1040      1029      1041      1042      1029      1041      1043
      1029      1041      1044      1042      1041      1043      1042      1041      1044
      1043      1041      1044      1030      1045      1046      1030      1045      1047
      1030      1045      1051      1046      1045      1047      1046      1045      1051
      1047      1045      1051      1049      1048      1050      1049      1048      1051
      1049      1048      1052      1050      1048      1051      1050      1048      1052
      1051      1048      1052      1045      1051      1048      1048      1052      1053
      1052      1053      1054      1052      1053      1055      1052      1053      1056
      1054      1053      1055      1054      1053      1056      1055      1053      1056
      1053      1056      1057      1053      1056      1058      1053      1056      1064
      1057      1056      1058      1057      1056      1064      1058      1056      1064
      1056      1058      1059      1058      1059      1060      1058      1059      1061
      1060      1059      1061      1059      1061      1062      1059      1061      1063
      1059      1061      1073      1062      1061      1063      1062      1061      1073
      1063      1061      1073      1056      1064      1065      1056      1064      1066
      1056      1064      1067      1065      1064      1066      1065      1064      1067
      1066      1064      1067      1064      1067      1068      1067      1068      1069
      1067      1068      1070      1069      1068      1070      1068      1070      1071
      1068      1070      1072      1068      1070      1120      1071      1070      1072
      1071      1070      1120      1072      1070      1120      1061      1073      1074
      1061      1073      1075      1061      1073      1076      1074      1073      1075
      1074      1073      1076      1075      1073      1076      1073      1076      1077
      1073      1076      1078      1073      1076      1079      1077      1076      1078
      1077      1076      1079      1078      1076      1079      1076      1079      1080
      1076      1079      1081      1076      1079      1082      1080      1079      1081
      1080      1079      1082      1081      1079      1082      1079      1082      1083
      1079      1082      1084      1079      1082      1085      1083      1082      1084
      1083      1082      1085      1084      1082      1085      1082      1085      1086
      1082      1085      1087      1082      1085      1088      1086      1085      1087
      1086      1085      1088      1087      1085      1088      1085      1088      1089
      1085      1088      1090      1085      1088      1091      1089      1088      1090
      1089      1088      1091      1090      1088      1091      1088      1091      1092
      1088      1091      1093      1092      1091      1093      1091      1093      1094
      1091      1093      1095      1094      1093      1095      1093      1095      1096
      1093      1095      1097      1093      1095      1098      1096      1095      1097
      1096      1095      1098      1097      1095      1098      1095      1098      1099
      1095      1098      1100      1095      1098      1101      1099      1098      1100
      1099      1098      1101      1100      1098      1101      1098      1101      1102
      1098      1101      1103      1098      1101      1104      1102      1101      1103
      1102      1101      1104      1103      1101      1104      1101      1104      1105
      1101      1104      1106      1101      1104      1107      1105      1104      1106
      1105      1104      1107      1106      1104      1107      1104      1107      1108
      1104      1107      1109      1104      1107      1110      1108      1107      1109
      1108      1107      1110      1109      1107      1110      1107      1110      1111
      1107      1110      1112      1107      1110      1113      1111      1110      1112
      1111      1110      1113      1112      1110      1113      1110      1113      1114
      1110      1113      1115      1110      1113      1116      1114      1113      1115
      1114      1113      1116      1115      1113      1116      1113      1116      1117
      1113      1116      1118      1113      1116      1119      1117      1116      1118
      1117      1116      1119      1118      1116      1119      1070      1120      1121
      1070      1120      1122      1070      1120      1123      1121      1120      1122
      1121      1120      1123      1122      1120      1123      1120      1123      1124
      1120      1123      1125      1120      1123      1126      1124      1123      1125
      1124      1123      1126      1125      1123      1126      1123      1126      1127
      1123      1126      1128      1123      1126      1129      1127      1126      1128
      1127      1126      1129      1128      1126      1129      1126      1129      1130
      1126      1129      1131      1126      1129      1132      1130      1129      1131
      1130      1129      1132      1131      1129      1132      1129      1132      1133
      1129      1132      1134      1129      1132      1135      1133      1132      1134
      1133      1132      1135      1134      1132      1135      1132      1135      1136
      1132      1135      1137      1132      1135      1138      1136      1135      1137
      1136      1135      1138      1137      1135      1138      1135      1138      1139
      1135      1138      1140      1135      1138      1141      1139      1138      1140
      1139      1138      1141      1140      1138      1141      1138      1141      1142
      1138      1141      1143      1138      1141      1144      1142      1141      1143
      1142      1141      1144      1143      1141      1144      1141      1144      1145
      1141      1144      1146      1141      1144      1147      1145      1144      1146
      1145      1144      1147      1146      1144      1147      1144      1147      1148
      1144      1147      1149      1144      1147      1150      1148      1147      1149
      1148      1147      1150      1149      1147      1150      1147      1150      1151
      1147      1150      1152      1147      1150      1153      1151      1150      1152
      1151      1150      1153      1152      1150      1153      1150      1153      1154
      1150      1153      1155      1150      1153      1156      1154      1153      1155
      1154      1153      1156      1155      1153      1156      1153      1156      1157
      1153      1156      1158      1153      1156      1159      1157      1156      1158
      1157      1156      1159      1158      1156      1159      1156      1159      1160
      1156      1159      1161      1156      1159      1162      1160      1159      1161
      1160      1159      1162      1161      1159      1162      1164      1163      1167
      1164      1163      1171      1164      1163      1175      1167      1163      1171
      1167      1163      1175      1171      1163      1175      1163      1164      1165
      1163      1164      1166      1163      1164      1179      1165      1164      1166
      1165      1164      1179      1166      1164      1179      1163      1167      1168
      1163      1167      1169      1163      1167      1170      1168      1167      1169
      1168      1167      1170      1169      1167      1170      1163      1171      1172
      1163      1171      1173      1163      1171      1174      1172      1171      1173
      1172      1171      1174      1173      1171      1174      1163      1175      1176
      1163      1175      1177      1163      1175      1178      1176      1175      1177
      1176      1175      1178      1177      1175      1178      1164      1179      1180
      1164      1179      1181      1164      1179      1185      1180      1179      1181
      1180      1179      1185      1181      1179      1185      1183      1182      1184
      1183      1182      1185      1183      1182      1186      1184      1182      1185
      1184      1182      1186      1185      1182      1186      1179      1185      1182
      1182      1186      1187      1186      1187      1188      1186      1187      1189
      1186      1187      1190      1188      1187      1189      1188      1187      1190
      1189      1187      1190      1187      1190      1191      1187      1190      1192
      1187      1190      1198      1191      1190      1192      1191      1190      1198
      1192      1190      1198      1190      1192      1193      1192      1193      1194
      1192      1193      1195      1194      1193      1195      1193      1195      1196
      1193      1195      1197      1193      1195      1207      1196      1195      1197
      1196      1195      1207      1197      1195      1207      1190      1198      1199
      1190      1198      1200      1190      1198      1201      1199      1198      1200
      1199      1198      1201      1200      1198      1201      1198      1201      1202
      1201      1202      1203      1201      1202      1204      1203      1202      1204
      1202      1204      1205      1202      1204      1206      1202      1204      1254
      1205      1204      1206      1205      1204      1254      1206      1204      1254
      1195      1207      1208      1195      1207      1209      1195      1207      1210
      1208      1207      1209      1208      1207      1210      1209      1207      1210
      1207      1210      1211      1207      1210      1212      1207      1210      1213
      1211      1210      1212      1211      1210      1213      1212      1210      1213
      1210      1213      1214      1210      1213      1215      1210      1213      1216
      1214      1213      1215      1214      1213      1216      1215      1213      1216
      1213      1216      1217      1213      1216      1218      1213      1216      1219
      1217      1216      1218      1217      1216      1219      1218      1216      1219
      1216      1219      1220      1216      1219      1221      1216      1219      1222
      1220      1219      1221      1220      1219      1222      1221      1219      1222
      1219      1222      1223      1219      1222      1224      1219      1222      1225
      1223      1222      1224      1223      1222      1225      1224      1222      1225
      1222      1225      1226      1222      1225      1227      1226      1225      1227
      1225      1227      1228      1225      1227      1229      1228      1227      1229
      1227      1229      1230      1227      1229      1231      1227      1229      1232
      1230      1229      1231      1230      1229      1232      1231      1229      1232
      1229      1232      1233      1229      1232      1234      1229      1232      1235
      1233      1232      1234      1233      1232      1235      1234      1232      1235
      1232      1235      1236      1232      1235      1237      1232      1235      1238
      1236      1235      1237      1236      1235      1238      1237      1235      1238
      1235      1238      1239      1235      1238      1240      1235      1238      1241
      1239      1238      1240      1239      1238      1241      1240      1238      1241
      1238      1241      1242      1238      1241      1243      1238      1241      1244
      1242      1241      1243      1242      1241      1244      1243      1241      1244
      1241      1244      1245      1241      1244      1246      1241      1244      1247
      1245      1244      1246      1245      1244      1247      1246      1244      1247
      1244      1247      1248      1244      1247      1249      1244      1247      1250
      1248      1247      1249      1248      1247      1250      1249      1247      1250
      1247      1250      1251      1247      1250      1252      1247      1250      1253
      1251      1250      1252      1251      1250      1253      1252      1250      1253
      1204      1254      1255      1204      1254      1256      1204      1254      1257
      1255      1254      1256      1255      1254      1257      1256      1254      1257
      1254      1257      1258      1254      1257      1259      1254      1257      1260
      1258      1257      1259      1258      1257      1260      1259      1257      1260
      1257      1260      1261      1257      1260      1262      1257      1260      1263
      1261      1260      1262      1261      1260      1263      1262      1260      1263
      1260      1263      1264      1260      1263      1265      1260      1263      1266
      1264      1263      1265      1264      1263      1266      1265      1263      1266
      1263      1266      1267      1263      1266      1268      1263      1266      1269
      1267      1266      1268      1267      1266      1269      1268      1266      1269
      1266      1269      1270      1266      1269      1271      1266      1269      1272
      1270      1269      1271      1270      1269      1272      1271      1269      1272
      1269      1272      1273      1269      1272      1274      1269      1272      1275
      1273      1272      1274      1273      1272      1275      1274      1272      1275
      1272      1275      1276      1272      1275      1277      1272      1275      1278
      1276      1275      1277      1276      1275      1278      1277      1275      1278
      1275      1278      1279      1275      1278      1280      1275      1278      1281
      1279      1278      1280      1279      1278      1281      1280      1278      1281
      1278      1281      1282      1278      1281      1283      1278      1281      1284
      1282      1281      1283      1282      1281      1284      1283      1281      1284
      1281      1284      1285      1281      1284      1286      1281      1284      1287
      1285      1284      1286      1285      1284      1287      1286      1284      1287
      1284      1287      1288      1284      1287      1289      1284      1287      1290
      1288      1287      1289      1288      1287      1290      1289      1287      1290
      1287      1290      1291      1287      1290      1292      1287      1290      1293
      1291      1290      1292      1291      1290      1293      1292      1290      1293
      1290      1293      1294      1290      1293      1295      1290      1293      1296
      1294      1293      1295      1294      1293      1296      1295      1293      1296
      1298      1297      1299      1298      1297      1300      1298      1297      1301
      1299      1297      1300      1299      1297      1301      1300      1297      1301
      1297      1301      1302      1297      1301      1303      1297      1301      1306
      1302      1301      1303      1302      1301      1306      1303      1301      1306
      1301      1303      1304      1301      1303      1305      1304      1303      1305
      1301      1306      1307      1301      1306      1308      1301      1306      1312
      1307      1306      1308      1307      1306      1312      1308      1306      1312
      1310      1309      1311      1310      1309      1312      1310      1309      1313
      1311      1309      1312      1311      1309      1313      1312      1309      1313
      1306      1312      1309      1309      1313      1314      1313      1314      1315
      1313      1314      1316      1313      1314      1317      1315      1314      1316
      1315      1314      1317      1316      1314      1317      1314      1317      1318
      1314      1317      1319      1314      1317      1325      1318      1317      1319
      1318      1317      1325      1319      1317      1325      1317      1319      1320
      1319      1320      1321      1319      1320      1322      1321      1320      1322
      1320      1322      1323      1320      1322      1324      1320      1322      1334
      1323      1322      1324      1323      1322      1334      1324      1322      1334
      1317      1325      1326      1317      1325      1327      1317      1325      1328
      1326      1325      1327      1326      1325      1328      1327      1325      1328
      1325      1328      1329      1328      1329      1330      1328      1329      1331
      1330      1329      1331      1329      1331      1332      1329      1331      1333
      1329      1331      1381      1332      1331      1333      1332      1331      1381
      1333      1331      1381      1322      1334      1335      1322      1334      1336
      1322      1334      1337      1335      1334      1336      1335      1334      1337
      1336      1334      1337      1334      1337      1338      1334      1337      1339
      1334      1337      1340      1338      1337      1339      1338      1337      1340
      1339      1337      1340      1337      1340      1341      1337      1340      1342
      1337      1340      1343      1341      1340      1342      1341      1340      1343
      1342      1340      1343      1340      1343      1344      1340      1343      1345
      1340      1343      1346      1344      1343      1345      1344      1343      1346
      1345      1343      1346      1343      1346      1347      1343      1346      1348
      1343      1346      1349      1347      1346      1348      1347      1346      1349
      1348      1346      1349      1346      1349      1350      1346      1349      1351
      1346      1349      1352      1350      1349      1351      1350      1349      1352
      1351      1349      1352      1349      1352      1353      1349      1352      1354
      1353      1352      1354      1352      1354      1355      1352      1354      1356
      1355      1354      1356      1354      1356      1357      1354      1356      1358
      1354      1356      1359      1357      1356      1358      1357      1356      1359
      1358      1356      1359      1356      1359      1360      1356      1359      1361
      1356      1359      1362      1360      1359      1361      1360      1359      1362
      1361      1359      1362      1359      1362      1363      1359      1362      1364
      1359      1362      1365      1363      1362      1364      1363      1362      1365
      1364      1362      1365      1362      1365      1366      1362      1365      1367
      1362      1365      1368      1366      1365      1367      1366      1365      1368
      1367      1365      1368      1365      1368      1369      1365      1368      1370
      1365      1368      1371      1369      1368      1370      1369      1368      1371
      1370      1368      1371      1368      1371      1372      1368      1371      1373
      1368      1371      1374      1372      1371      1373      1372      1371      1374
      1373      1371      1374      1371      1374      1375      1371      1374      1376
      1371      1374      1377      1375      1374      1376      1375      1374      1377
      1376      1374      1377      1374      1377      1378      1374      1377      1379
      1374      1377      1380      1378      1377      1379      1378      1377      1380
      1379      1377      1380      1331      1381      1382      1331      1381      1383
      1331      1381      1384      1382      1381      1383      1382      1381      1384
      1383      1381      1384      1381      1384      1385      1381      1384      1386
      1381      1384      1387      1385      1384      1386      1385      1384      1387
      1386      1384      1387      1384      1387      1388      1384      1387      1389
      1384      1387      1390      1388      1387      1389      1388      1387      1390
      1389      1387      1390      1387      1390      1391      1387      1390      1392
      1387      1390      1393      1391      1390      1392      1391      1390      1393
      1392      1390      1393      1390      1393      1394      1390      1393      1395
      1390      1393      1396      1394      1393      1395      1394      1393      1396
      1395      1393      1396      1393      1396      1397      1393      1396      1398
      1393      1396      1399      1397      1396      1398      1397      1396      1399
      1398      1396      1399      1396      1399      1400      1396      1399      1401
      1396      1399      1402      1400      1399      1401      1400      1399      1402
      1401      1399      1402      1399      1402      1403      1399      1402      1404
      1399      1402      1405      1403      1402      1404      1403      1402      1405
      1404      1402      1405      1402      1405      1406      1402      1405      1407
      1402      1405      1408      1406      1405      1407      1406      1405      1408
      1407      1405      1408      1405      1408      1409      1405      1408      1410
      1405      1408      1411      1409      1408      1410      1409      1408      1411
      1410      1408      1411      1408      1411      1412      1408      1411      1413
      1408      1411      1414      1412      1411      1413      1412      1411      1414
      1413      1411      1414      1411      1414      1415      1411      1414      1416
      1411      1414      1417      1415      1414      1416      1415      1414      1417
      1416      1414      1417      1414      1417      1418      1414      1417      1419
      1414      1417      1420      1418      1417      1419      1418      1417      1420
      1419      1417      1420      1417      1420      1421      1417      1420      1422
      1417      1420      1423      1421      1420      1422      1421      1420      1423
      1422      1420      1423      1425      1424      1426      1425      1424      1427
      1425      1424      1428      1426      1424      1427      1426      1424      1428
      1427      1424      1428      1424      1428      1429      1424      1428      1430
      1424      1428      1433      1429      1428      1430      1429      1428      1433
      1430      1428      1433      1428      1430      1431      1428      1430      1432
      1431      1430      1432      1428      1433      1434      1428      1433      1435
      1428      1433      1439      1434      1433      1435      1434      1433      1439
      1435      1433      1439      1437      1436      1438      1437      1436      1439
      1437      1436      1440      1438      1436      1439      1438      1436      1440
      1439      1436      1440      1433      1439      1436      1436      1440      1441
      1440      1441      1442      1440      1441      1443      1440      1441      1444
      1442      1441      1443      1442      1441      1444      1443      1441      1444
      1441      1444      1445      1441      1444      1446      1441      1444      1452
      1445      1444      1446      1445      1444      1452      1446      1444      1452
      1444      1446      1447      1446      1447      1448      1446      1447      1449
      1448      1447      1449      1447      1449      1450      1447      1449      1451
      1447      1449      1461      1450      1449      1451      1450      1449      1461
      1451      1449      1461      1444      1452      1453      1444      1452      1454
      1444      1452      1455      1453      1452      1454      1453      1452      1455
      1454      1452      1455      1452      1455      1456      1455      1456      1457
      1455      1456      1458      1457      1456      1458      1456      1458      1459
      1456      1458      1460      1456      1458      1508      1459      1458      1460
      1459      1458      1508      1460      1458      1508      1449      1461      1462
      1449      1461      1463      1449      1461      1464      1462      1461      1463
      1462      1461      1464      1463      1461      1464      1461      1464      1465
      1461      1464      1466      1461      1464      1467      1465      1464      1466
      1465      1464      1467      1466      1464      1467      1464      1467      1468
      1464      1467      1469      1464      1467      1470      1468      1467      1469
      1468      1467      1470      1469      1467      1470      1467      1470      1471
      1467      1470      1472      1467      1470      1473      1471      1470      1472
      1471      1470      1473      1472      1470      1473      1470      1473      1474
      1470      1473      1475      1470      1473      1476      1474      1473      1475
      1474      1473      1476      1475      1473      1476      1473      1476      1477
      1473      1476      1478      1473      1476      1479      1477      1476      1478
      1477      1476      1479      1478      1476      1479      1476      1479      1480
      1476      1479      1481      1480      1479      1481      1479      1481      1482
      1479      1481      1483      1482      1481      1483      1481      1483      1484
      1481      1483      1485      1481      1483      1486      1484      1483      1485
      1484      1483      1486      1485      1483      1486      1483      1486      1487
      1483      1486      1488      1483      1486      1489      1487      1486      1488
      1487      1486      1489      1488      1486      1489      1486      1489      1490
      1486      1489      1491      1486      1489      1492      1490      1489      1491
      1490      1489      1492      1491      1489      1492      1489      1492      1493
      1489      1492      1494      1489      1492      1495      1493      1492      1494
      1493      1492      1495      1494      1492      1495      1492      1495      1496
      1492      1495      1497      1492      1495      1498      1496      1495      1497
      1496      1495      1498      1497      1495      1498      1495      1498      1499
      1495      1498      1500      1495      1498      1501      1499      1498      1500
      1499      1498      1501      1500      1498      1501      1498      1501      1502
      1498      1501      1503      1498      1501      1504      1502      1501      1503
      1502      1501      1504      1503      1501      1504      1501      1504      1505
      1501      1504      1506      1501      1504      1507      1505      1504      1506
      1505      1504      1507      1506      1504      1507      1458      1508      1509
      1458      1508      1510      1458      1508      1511      1509      1508      1510
      1509      1508      1511      1510      1508      1511      1508      1511      1512
      1508      1511      1513      1508      1511      1514      1512      1511      1513
      1512      1511      1514      1513      1511      1514      1511      1514      1515
      1511      1514      1516      1511      1514      1517      1515      1514      1516
      1515      1514      1517      1516      1514      1517      1514      1517      1518
      1514      1517      1519      1514      1517      1520      1518      1517      1519
      1518      1517      1520      1519      1517      1520      1517      1520      1521
      1517      1520      1522      1517      1520      1523      1521      1520      1522
      1521      1520      1523      1522      1520      1523      1520      1523      1524
      1520      1523      1525      1520      1523      1526      1524      1523      1525
      1524      1523      1526      1525      1523      1526      1523      1526      1527
      1523      1526      1528      1523      1526      1529      1527      1526      1528
      1527      1526      1529      1528      1526      1529      1526      1529      1530
      1526      1529      1531      1526      1529      1532      1530      1529      1531
      1530      1529      1532      1531      1529      1532      1529      1532      1533
      1529      1532      1534      1529      1532      1535      1533      1532      1534
      1533      1532      1535      1534      1532      1535      1532      1535      1536
      1532      1535      1537      1532      1535      1538      1536      1535      1537
      1536      1535      1538      1537      1535      1538      1535      1538      1539
      1535      1538      1540      1535      1538      1541      1539      1538      1540
      1539      1538      1541      1540      1538      1541      1538      1541      1542
      1538      1541      1543      1538      1541      1544      1542      1541      1543
      1542      1541      1544      1543      1541      1544      1541      1544      1545
      1541      1544      1546      1541      1544      1547      1545      1544      1546
      1545      1544      1547      1546      1544      1547      1544      1547      1548
      1544      1547      1549      1544      1547      1550      1548      1547      1549
      1548      1547      1550      1549      1547      1550      1552      1551      1555
      1552      1551      1559      1552      1551      1563      1555      1551      1559
      1555      1551      1563      1559      1551      1563      1551      1552      1553
      1551      1552      1554      1551      1552      1567      1553      1552      1554
      1553      1552      1567      1554      1552      1567      1551      1555      1556
      1551      1555      1557      1551      1555      1558      1556      1555      1557
      1556      1555      1558      1557      1555      1558      1551      1559      1560
      1551      1559      1561      1551      1559      1562      1560      1559      1561
      1560      1559      1562      1561      1559      1562      1551      1563      1564
      1551      1563      1565      1551      1563      1566      1564      1563      1565
      1564      1563      1566      1565      1563      1566      1552      1567      1568
      1552      1567      1569      1552      1567      1573      1568      1567      1569
      1568      1567      1573      1569      1567      1573      1571      1570      1572
      1571      1570      1573      1571      1570      1574      1572      1570      1573
      1572      1570      1574      1573      1570      1574      1567      1573      1570
      1570      1574      1575      1574      1575      1576      1574      1575      1577
      1574      1575      1578      1576      1575      1577      1576      1575      1578
      1577      1575      1578      1575      1578      1579      1575      1578      1580
      1575      1578      1586      1579      1578      1580      1579      1578      1586
      1580      1578      1586      1578      1580      1581      1580      1581      1582
      1580      1581      1583      1582      1581      1583      1581      1583      1584
      1581      1583      1585      1581      1583      1595      1584      1583      1585
      1584      1583      1595      1585      1583      1595      1578      1586      1587
      1578      1586      1588      1578      1586      1589      1587      1586      1588
      1587      1586      1589      1588      1586      1589      1586      1589      1590
      1589      1590      1591      1589      1590      1592      1591      1590      1592
      1590      1592      1593      1590      1592      1594      1590      1592      1642
      1593      1592      1594      1593      1592      1642      1594      1592      1642
      1583      1595      1596      1583      1595      1597      1583      1595      1598
      1596      1595      1597      1596      1595      1598      1597      1595      1598
      1595      1598      1599      1595      1598      1600      1595      1598      1601
      1599      1598      1600      1599      1598      1601      1600      1598      1601
      1598      1601      1602      1598      1601      1603      1598      1601      1604
      1602      1601      1603      1602      1601      1604      1603      1601      1604
      1601      1604      1605      1601      1604      1606      1601      1604      1607
      1605      1604      1606      1605      1604      1607      1606      1604      1607
      1604      1607      1608      1604      1607      1609      1604      1607      1610
      1608      1607      1609      1608      1607      1610      1609      1607      1610
      1607      1610      1611      1607      1610      1612      1607      1610      1613
      1611      1610      1612      1611      1610      1613      1612      1610      1613
      1610      1613      1614      1610      1613      1615      1614      1613      1615
      1613      1615      1616      1613      1615      1617      1616      1615      1617
      1615      1617      1618      1615      1617      1619      1615      1617      1620
      1618      1617      1619      1618      1617      1620      1619      1617      1620
      1617      1620      1621      1617      1620      1622      1617      1620      1623
      1621      1620      1622      1621      1620      1623      1622      1620      1623
      1620      1623      1624      1620      1623      1625      1620      1623      1626
      1624      1623      1625      1624      1623      1626      1625      1623      1626
      1623      1626      1627      1623      1626      1628      1623      1626      1629
      1627      1626      1628      1627      1626      1629      1628      1626      1629
      1626      1629      1630      1626      1629      1631      1626      1629      1632
      1630      1629      1631      1630      1629      1632      1631      1629      1632
      1629      1632      1633      1629      1632      1634      1629      1632      1635
      1633      1632      1634      1633      1632      1635      1634      1632      1635
      1632      1635      1636      1632      1635      1637      1632      1635      1638
      1636      1635      1637      1636      1635      1638      1637      1635      1638
      1635      1638      1639      1635      1638      1640      1635      1638      1641
      1639      1638      1640      1639      1638      1641      1640      1638      1641
      1592      1642      1643      1592      1642      1644      1592      1642      1645
      1643      1642      1644      1643      1642      1645      1644      1642      1645
      1642      1645      1646      1642      1645      1647      1642      1645      1648
      1646      1645      1647      1646      1645      1648      1647      1645      1648
      1645      1648      1649      1645      1648      1650      1645      1648      1651
      1649      1648      1650      1649      1648      1651      1650      1648      1651
      1648      1651      1652      1648      1651      1653      1648      1651      1654
      1652      1651      1653      1652      1651      1654      1653      1651      1654
      1651      1654      1655      1651      1654      1656      1651      1654      1657
      1655      1654      1656      1655      1654      1657      1656      1654      1657
      1654      1657      1658      1654      1657      1659      1654      1657      1660
      1658      1657      1659      1658      1657      1660      1659      1657      1660
      1657      1660      1661      1657      1660      1662      1657      1660      1663
      1661      1660      1662      1661      1660      1663      1662      1660      1663
      1660      1663      1664      1660      1663      1665      1660      1663      1666
      1664      1663      1665      1664      1663      1666      1665      1663      1666
      1663      1666      1667      1663      1666      1668      1663      1666      1669
      1667      1666      1668      1667      1666      1669      1668      1666      1669
      1666      1669      1670      1666      1669      1671      1666      1669      1672
      1670      1669      1671      1670      1669      1672      1671      1669      1672
      1669      1672      1673      1669      1672      1674      1669      1672      1675
      1673      1672      1674      1673      1672      1675      1674      1672      1675
      1672      1675      1676      1672      1675      1677      1672      1675      1678
      1676      1675      1677      1676      1675      1678      1677      1675      1678
      1675      1678      1679      1675      1678      1680      1675      1678      1681
      1679      1678      1680      1679      1678      1681      1680      1678      1681
      1678      1681      1682      1678      1681      1683      1678      1681      1684
      1682      1681      1683      1682      1681      1684      1683      1681      1684
      1686      1685      1687      1686      1685      1688      1686      1685      1689
      1687      1685      1688      1687      1685      1689      1688      1685      1689
      1685      1689      1690      1685      1689      1691      1685      1689      1694
      1690      1689      1691      1690      1689      1694      1691      1689      1694
      1689      1691      1692      1689      1691      1693      1692      1691      1693
      1689      1694      1695      1689      1694      1696      1689      1694      1700
      1695      1694      1696      1695      1694      1700      1696      1694      1700
      1698      1697      1699      1698      1697      1700      1698      1697      1701
      1699      1697      1700      1699      1697      1701      1700      1697      1701
      1694      1700      1697      1697      1701      1702      1701      1702      1703
      1701      1702      1704      1701      1702      1705      1703      1702      1704
      1703      1702      1705      1704      1702      1705      1702      1705      1706
      1702      1705      1707      1702      1705      1713      1706      1705      1707
      1706      1705      1713      1707      1705      1713      1705      1707      1708
      1707      1708      1709      1707      1708      1710      1709      1708      1710
      1708      1710      1711      1708      1710      1712      1708      1710      1722
      1711      1710      1712      1711      1710      1722      1712      1710      1722
      1705      1713      1714      1705      1713      1715      1705      1713      1716
      1714      1713      1715      1714      1713      1716      1715      1713      1716
      1713      1716      1717      1716      1717      1718      1716      1717      1719
      1718      1717      1719      1717      1719      1720      1717      1719      1721
      1717      1719      1769      1720      1719      1721      1720      1719      1769
      1721      1719      1769      1710      1722      1723      1710      1722      1724
      1710      1722      1725      1723      1722      1724      1723      1722      1725
      1724      1722      1725      1722      1725      1726      1722      1725      1727
      1722      1725      1728      1726      1725      1727      1726      1725      1728
      1727      1725      1728      1725      1728      1729      1725      1728      1730
      1725      1728      1731      1729      1728      1730      1729      1728      1731
      1730      1728      1731      1728      1731      1732      1728      1731      1733
      1728      1731      1734      1732      1731      1733      1732      1731      1734
      1733      1731      1734      1731      1734      1735      1731      1734      1736
      1731      1734      1737      1735      1734      1736      1735      1734      1737
      1736      1734      1737      1734      1737      1738      1734      1737      1739
      1734      1737      1740      1738      1737      1739      1738      1737      1740
      1739      1737      1740      1737      1740      1741      1737      1740      1742
      1741      1740      1742      1740      1742      1743      1740      1742      1744
      1743      1742      1744      1742      1744      1745      1742      1744      1746
      1742      1744      1747      1745      1744      1746      1745      1744      1747
      1746      1744      1747      1744      1747      1748      1744      1747      1749
      1744      1747      1750      1748      1747      1749      1748      1747      1750
      1749      1747      1750      1747      1750      1751      1747      1750      1752
      1747      1750      1753      1751      1750      1752      1751      1750      1753
      1752      1750      1753      1750      1753      1754      1750      1753      1755
      1750      1753      1756      1754      1753      1755      1754      1753      1756
      1755      1753      1756      1753      1756      1757      1753      1756      1758
      1753      1756      1759      1757      1756      1758      1757      1756      1759
      1758      1756      1759      1756      1759      1760      1756      1759      1761
      1756      1759      1762      1760      1759      1761      1760      1759      1762
      1761      1759      1762      1759      1762      1763      1759      1762      1764
      1759      1762      1765      1763      1762      1764      1763      1762      1765
      1764      1762      1765      1762      1765      1766      1762      1765      1767
      1762      1765      1768      1766      1765      1767      1766      1765      1768
      1767      1765      1768      1719      1769      1770      1719      1769      1771
      1719      1769      1772      1770      1769      1771      1770      1769      1772
      1771      1769      1772      1769      1772      1773      1769      1772      1774
      1769      1772      1775      1773      1772      1774      1773      1772      1775
      1774      1772      1775      1772      1775      1776      1772      1775      1777
      1772      1775      1778      1776      1775      1777      1776      1775      1778
      1777      1775      1778      1775      1778      1779      1775      1778      1780
      1775      1778      1781      1779      1778      1780      1779      1778      1781
      1780      1778      1781      1778      1781      1782      1778      1781      1783
      1778      1781      1784      1782      1781      1783      1782      1781      1784
      1783      1781      1784      1781      1784      1785      1781      1784      1786
      1781      1784      1787      1785      1784      1786      1785      1784      1787
      1786      1784      1787      1784      1787      1788      1784      1787      1789
      1784      1787      1790      1788      1787      1789      1788      1787      1790
      1789      1787      1790      1787      1790      1791      1787      1790      1792
      1787      1790      1793      1791      1790      1792      1791      1790      1793
      1792      1790      1793      1790      1793      1794      1790      1793      1795
      1790      1793      1796      1794      1793      1795      1794      1793      1796
      1795      1793      1796      1793      1796      1797      1793      1796      1798
      1793      1796      1799      1797      1796      1798      1797      1796      1799
      1798      1796      1799      1796      1799      1800      1796      1799      1801
      1796      1799      1802      1800      1799      1801      1800      1799      1802
      1801      1799      1802      1799      1802      1803      1799      1802      1804
      1799      1802      1805      1803      1802      1804      1803      1802      1805
      1804      1802      1805      1802      1805      1806      1802      1805      1807
      1802      1805      1808      1806      1805      1807      1806      1805      1808
      1807      1805      1808      1805      1808      1809      1805      1808      1810
      1805      1808      1811      1809      1808      1810      1809      1808      1811
      1810      1808      1811      1813      1812      1816      1813      1812      1820
      1813      1812      1824      1816      1812      1820      1816      1812      1824
      1820      1812      1824      1812      1813      1814      1812      1813      1815
      1812      1813      1828      1814      1813      1815      1814      1813      1828
      1815      1813      1828      1812      1816      1817      1812      1816      1818
      1812      1816      1819      1817      1816      1818      1817      1816      1819
      1818      1816      1819      1812      1820      1821      1812      1820      1822
      1812      1820      1823      1821      1820      1822      1821      1820      1823
      1822      1820      1823      1812      1824      1825      1812      1824      1826
      1812      1824      1827      1825      1824      1826      1825      1824      1827
      1826      1824      1827      1813      1828      1829      1813      1828      1830
      1813      1828      1834      1829      1828      1830      1829      1828      1834
      1830      1828      1834      1832      1831      1833      1832      1831      1834
      1832      1831      1835      1833      1831      1834      1833      1831      1835
      1834      1831      1835      1828      1834      1831      1831      1835      1836
      1835      1836      1837      1835      1836      1838      1835      1836      1839
      1837      1836      1838      1837      1836      1839      1838      1836      1839
      1836      1839      1840      1836      1839      1841      1836      1839      1847
      1840      1839      1841      1840      1839      1847      1841      1839      1847
      1839      1841      1842      1841      1842      1843      1841      1842      1844
      1843      1842      1844      1842      1844      1845      1842      1844      1846
      1842      1844      1856      1845      1844      1846      1845      1844      1856
      1846      1844      1856      1839      1847      1848      1839      1847      1849
      1839      1847      1850      1848      1847      1849      1848      1847      1850
      1849      1847      1850      1847      1850      1851      1850      1851      1852
      1850      1851      1853      1852      1851      1853      1851      1853      1854
      1851      1853      1855      1851      1853      1903      1854      1853      1855
      1854      1853      1903      1855      1853      1903      1844      1856      1857
      1844      1856      1858      1844      1856      1859      1857      1856      1858
      1857      1856      1859      1858      1856      1859      1856      1859      1860
      1856      1859      1861      1856      1859      1862      1860      1859      1861
      1860      1859      1862      1861      1859      1862      1859      1862      1863
      1859      1862      1864      1859      1862      1865      1863      1862      1864
      1863      1862      1865      1864      1862      1865      1862      1865      1866
      1862      1865      1867      1862      1865      1868      1866      1865      1867
      1866      1865      1868      1867      1865      1868      1865      1868      1869
      1865      1868      1870      1865      1868      1871      1869      1868      1870
      1869      1868      1871      1870      1868      1871      1868      1871      1872
      1868      1871      1873      1868      1871      1874      1872      1871      1873
      1872      1871      1874      1873      1871      1874      1871      1874      1875
      1871      1874      1876      1875      1874      1876      1874      1876      1877
      1874      1876      1878      1877      1876      1878      1876      1878      1879
      1876      1878      1880      1876      1878      1881      1879      1878      1880
      1879      1878      1881      1880      1878      1881      1878      1881      1882
      1878      1881      1883      1878      1881      1884      1882      1881      1883
      1882      1881      1884      1883      1881      1884      1881      1884      1885
      1881      1884      1886      1881      1884      1887      1885      1884      1886
      1885      1884      1887      1886      1884      1887      1884      1887      1888
      1884      1887      1889      1884      1887      1890      1888      1887      1889
      1888      1887      1890      1889      1887      1890      1887      1890      1891
      1887      1890      1892      1887      1890      1893      1891      1890      1892
      1891      1890      1893      1892      1890      1893      1890      1893      1894
      1890      1893      1895      1890      1893      1896      1894      1893      1895
      1894      1893      1896      1895      1893      1896      1893      1896      1897
      1893      1896      1898      1893      1896      1899      1897      1896      1898
      1897      1896      1899      1898      1896      1899      1896      1899      1900
      1896      1899      1901      1896      1899      1902      1900      1899      1901
      1900      1899      1902      1901      1899      1902      1853      1903      1904
      1853      1903      1905      1853      1903      1906      1904      1903      1905
      1904      1903      1906      1905      1903      1906      1903      1906      1907
      1903      1906      1908      1903      1906      1909      1907      1906      1908
      1907      1906      1909      1908      1906      1909      1906      1909      1910
      1906      1909      1911      1906      1909      1912      1910      1909      1911
      1910      1909      1912      1911      1909      1912      1909      1912      1913
      1909      1912      1914      1909      1912      1915      1913      1912      1914
      1913      1912      1915      1914      1912      1915      1912      1915      1916
      1912      1915      1917      1912      1915      1918      1916      1915      1917
      1916      1915      1918      1917      1915      1918      1915      1918      1919
      1915      1918      1920      1915      1918      1921      1919      1918      1920
      1919      1918      1921      1920      1918      1921      1918      1921      1922
      1918      1921      1923      1918      1921      1924      1922      1921      1923
      1922      1921      1924      1923      1921      1924      1921      1924      1925
      1921      1924      1926      1921      1924      1927      1925      1924      1926
      1925      1924      1927      1926      1924      1927      1924      1927      1928
      1924      1927      1929      1924      1927      1930      1928      1927      1929
      1928      1927      1930      1929      1927      1930      1927      1930      1931
      1927      1930      1932      1927      1930      1933      1931      1930      1932
      1931      1930      1933      1932      1930      1933      1930      1933      1934
      1930      1933      1935      1930      1933      1936      1934      1933      1935
      1934      1933      1936      1935      1933      1936      1933      1936      1937
      1933      1936      1938      1933      1936      1939      1937      1936      1938
      1937      1936      1939      1938      1936      1939      1936      1939      1940
      1936      1939      1941      1936      1939      1942      1940      1939      1941
      1940      1939      1942      1941      1939      1942      1939      1942      1943
      1939      1942      1944      1939      1942      1945      1943      1942      1944
      1943      1942      1945      1944      1942      1945      1947      1946      1950
      1947      1946      1954      1947      1946      1958      1950      1946      1954
      1950      1946      1958      1954      1946      1958      1946      1947      1948
      1946      1947      1949      1946      1947      1962      1948      1947      1949
      1948      1947      1962      1949      1947      1962      1946      1950      1951
      1946      1950      1952      1946      1950      1953      1951      1950      1952
      1951      1950      1953      1952      1950      1953      1946      1954      1955
      1946      1954      1956      1946      1954      1957      1955      1954      1956
      1955      1954      1957      1956      1954      1957      1946      1958      1959
      1946      1958      1960      1946      1958      1961      1959      1958      1960
      1959      1958      1961      1960      1958      1961      1947      1962      1963
      1947      1962      1964      1947      1962      1968      1963      1962      1964
      1963      1962      1968      1964      1962      1968      1966      1965      1967
      1966      1965      1968      1966      1965      1969      1967      1965      1968
      1967      1965      1969      1968      1965      1969      1962      1968      1965
      1965      1969      1970      1969      1970      1971      1969      1970      1972
      1969      1970      1973      1971      1970      1972      1971      1970      1973
      1972      1970      1973      1970      1973      1974      1970      1973      1975
      1970      1973      1981      1974      1973      1975      1974      1973      1981
      1975      1973      1981      1973      1975      1976      1975      1976      1977
      1975      1976      1978      1977      1976      1978      1976      1978      1979
      1976      1978      1980      1976      1978      1990      1979      1978      1980
      1979      1978      1990      1980      1978      1990      1973      1981      1982
      1973      1981      1983      1973      1981      1984      1982      1981      1983
      1982      1981      1984      1983      1981      1984      1981      1984      1985
      1984      1985      1986      1984      1985      1987      1986      1985      1987
      1985      1987      1988      1985      1987      1989      1985      1987      2037
      1988      1987      1989      1988      1987      2037      1989      1987      2037
      1978      1990      1991      1978      1990      1992      1978      1990      1993
      1991      1990      1992      1991      1990      1993      1992      1990      1993
      1990      1993      1994      1990      1993      1995      1990      1993      1996
      1994      1993      1995      1994      1993      1996      1995      1993      1996
      1993      1996      1997      1993      1996      1998      1993      1996      1999
      1997      1996      1998      1997      1996      1999      1998      1996      1999
      1996      1999      2000      1996      1999      2001      1996      1999      2002
      2000      1999      2001      2000      1999      2002      2001      1999      2002
      1999      2002      2003      1999      2002      2004      1999      2002      2005
      2003      2002      2004      2003      2002      2005      2004      2002      2005
      2002      2005      2006      2002      2005      2007      2002      2005      2008
      2006      2005      2007      2006      2005      2008      2007      2005      2008
      2005      2008      2009      2005      2008      2010      2009      2008      2010
      2008      2010      2011      2008      2010      2012      2011      2010      2012
      2010      2012      2013      2010      2012      2014      2010      2012      2015
      2013      2012      2014      2013      2012      2015      2014      2012      2015
      2012      2015      2016      2012      2015      2017      2012      2015      2018
      2016      2015      2017      2016      2015      2018      2017      2015      2018
      2015      2018      2019      2015      2018      2020      2015      2018      2021
      2019      2018      2020      2019      2018      2021      2020      2018      2021
      2018      2021      2022      2018      2021      2023      2018      2021      2024
      2022      2021      2023      2022      2021      2024      2023      2021      2024
      2021      2024      2025      2021      2024      2026      2021      2024      2027
      2025      2024      2026      2025      2024      2027      2026      2024      2027
      2024      2027      2028      2024      2027      2029      2024      2027      2030
      2028      2027      2029      2028      2027      2030      2029      2027      2030
      2027      2030      2031      2027      2030      2032      2027      2030      2033
      2031      2030      2032      2031      2030      2033      2032      2030      2033
      2030      2033      2034      2030      2033      2035      2030      2033      2036
      2034      2033      2035      2034      2033      2036      2035      2033      2036
      1987      2037      2038      1987      2037      2039      1987      2037      2040
      2038      2037      2039      2038      2037      2040      2039      2037      2040
      2037      2040      2041      2037      2040      2042      2037      2040      2043
      2041      2040      2042      2041      2040      2043      2042      2040      2043
      2040      2043      2044      2040      2043      2045      2040      2043      2046
      2044      2043      2045      2044      2043      2046      2045      2043      2046
      2043      2046      2047      2043      2046      2048      2043      2046      2049
      2047      2046      2048      2047      2046      2049      2048      2046      2049
      2046      2049      2050      2046      2049      2051      2046      2049      2052
      2050      2049      2051      2050      2049      2052      2051      2049      2052
      2049      2052      2053      2049      2052      2054      2049      2052      2055
      2053      2052      2054      2053      2052      2055      2054      2052      2055
      2052      2055      2056      2052      2055      2057      2052      2055      2058
      2056      2055      2057      2056      2055      2058      2057      2055      2058
      2055      2058      2059      2055      2058      2060      2055      2058      2061
      2059      2058      2060      2059      2058      2061      2060      2058      2061
      2058      2061      2062      2058      2061      2063      2058      2061      2064
      2062      2061      2063      2062      2061      2064      2063      2061      2064
      2061      2064      2065      2061      2064      2066      2061      2064      2067
      2065      2064      2066      2065      2064      2067      2066      2064      2067
      2064      2067      2068      2064      2067      2069      2064      2067      2070
      2068      2067      2069      2068      2067      2070      2069      2067      2070
      2067      2070      2071      2067      2070      2072      2067      2070      2073
      2071      2070      2072      2071      2070      2073      2072      2070      2073
      2070      2073      2074      2070      2073      2075      2070      2073      2076
      2074      2073      2075      2074      2073      2076      2075      2073      2076
      2073      2076      2077      2073      2076      2078      2073      2076      2079
      2077      2076      2078      2077      2076      2079      2078      2076      2079
      2081      2080      2084      2081      2080      2088      2081      2080      2092
      2084      2080      2088      2084      2080      2092      2088      2080      2092
      2080      2081      2082      2080      2081      2083      2080      2081      2096
      2082      2081      2083      2082      2081      2096      2083      2081      2096
      2080      2084      2085      2080      2084      2086      2080      2084      2087
      2085      2084      2086      2085      2084      2087      2086      2084      2087
      2080      2088      2089      2080      2088      2090      2080      2088      2091
      2089      2088      2090      2089      2088      2091      2090      2088      2091
      2080      2092      2093      2080      2092      2094      2080      2092      2095
      2093      2092      2094      2093      2092      2095      2094      2092      2095
      2081      2096      2097      2081      2096      2098      2081      2096      2102
      2097      2096      2098      2097      2096      2102      2098      2096      2102
      2100      2099      2101      2100      2099      2102      2100      2099      2103
      2101      2099      2102      2101      2099      2103      2102      2099      2103
      2096      2102      2099      2099      2103      2104      2103      2104      2105
      2103      2104      2106      2103      2104      2107      2105      2104      2106
      2105      2104      2107      2106      2104      2107      2104      2107      2108
      2104      2107      2109      2104      2107      2115      2108      2107      2109
      2108      2107      2115      2109      2107      2115      2107      2109      2110
      2109      2110      2111      2109      2110      2112      2111      2110      2112
      2110      2112      2113      2110      2112      2114      2110      2112      2124
      2113      2112      2114      2113      2112      2124      2114      2112      2124
      2107      2115      2116      2107      2115      2117      2107      2115      2118
      2116      2115      2117      2116      2115      2118      2117      2115      2118
      2115      2118      2119      2118      2119      2120      2118      2119      2121
      2120      2119      2121      2119      2121      2122      2119      2121      2123
      2119      2121      2171      2122      2121      2123      2122      2121      2171
      2123      2121      2171      2112      2124      2125      2112      2124      2126
      2112      2124      2127      2125      2124      2126      2125      2124      2127
      2126      2124      2127      2124      2127      2128      2124      2127      2129
      2124      2127      2130      2128      2127      2129      2128      2127      2130
      2129      2127      2130      2127      2130      2131      2127      2130      2132
      2127      2130      2133      2131      2130      2132      2131      2130      2133
      2132      2130      2133      2130      2133      2134      2130      2133      2135
      2130      2133      2136      2134      2133      2135      2134      2133      2136
      2135      2133      2136      2133      2136      2137      2133      2136      2138
      2133      2136      2139      2137      2136      2138      2137      2136      2139
      2138      2136      2139      2136      2139      2140      2136      2139      2141
      2136      2139      2142      2140      2139      2141      2140      2139      2142
      2141      2139      2142      2139      2142      2143      2139      2142      2144
      2143      2142      2144      2142      2144      2145      2142      2144      2146
      2145      2144      2146      2144      2146      2147      2144      2146      2148
      2144      2146      2149      2147      2146      2148      2147      2146      2149
      2148      2146      2149      2146      2149      2150      2146      2149      2151
      2146      2149      2152      2150      2149      2151      2150      2149      2152
      2151      2149      2152      2149      2152      2153      2149      2152      2154
      2149      2152      2155      2153      2152      2154      2153      2152      2155
      2154      2152      2155      2152      2155      2156      2152      2155      2157
      2152      2155      2158      2156      2155      2157      2156      2155      2158
      2157      2155      2158      2155      2158      2159      2155      2158      2160
      2155      2158      2161      2159      2158      2160      2159      2158      2161
      2160      2158      2161      2158      2161      2162      2158      2161      2163
      2158      2161      2164      2162      2161      2163      2162      2161      2164
      2163      2161      2164      2161      2164      2165      2161      2164      2166
      2161      2164      2167      2165      2164      2166      2165      2164      2167
      2166      2164      2167      2164      2167      2168      2164      2167      2169
      2164      2167      2170      2168      2167      2169      2168      2167      2170
      2169      2167      2170      2121      2171      2172      2121      2171      2173
      2121      2171      2174      2172      2171      2173      2172      2171      2174
      2173      2171      2174      2171      2174      2175      2171      2174      2176
      2171      2174      2177      2175      2174      2176      2175      2174      2177
      2176      2174      2177      2174      2177      2178      2174      2177      2179
      2174      2177      2180      2178      2177      2179      2178      2177      2180
      2179      2177      2180      2177      2180      2181      2177      2180      2182
      2177      2180      2183      2181      2180      2182      2181      2180      2183
      2182      2180      2183      2180      2183      2184      2180      2183      2185
      2180      2183      2186      2184      2183      2185      2184      2183      2186
      2185      2183      2186      2183      2186      2187      2183      2186      2188
      2183      2186      2189      2187      2186      2188      2187      2186      2189
      2188      2186      2189      2186      2189      2190      2186      2189      2191
      2186      2189      2192      2190      2189      2191      2190      2189      2192
      2191      2189      2192      2189      2192      2193      2189      2192      2194
      2189      2192      2195      2193      2192      2194      2193      2192      2195
      2194      2192      2195      2192      2195      2196      2192      2195      2197
      2192      2195      2198      2196      2195      2197      2196      2195      2198
      2197      2195      2198      2195      2198      2199      2195      2198      2200
      2195      2198      2201      2199      2198      2200      2199      2198      2201
      2200      2198      2201      2198      2201      2202      2198      2201      2203
      2198      2201      2204      2202      2201      2203      2202      2201      2204
      2203      2201      2204      2201      2204      2205      2201      2204      2206
      2201      2204      2207      2205      2204      2206      2205      2204      2207
      2206      2204      2207      2204      2207      2208      2204      2207      2209
      2204      2207      2210      2208      2207      2209      2208      2207      2210
      2209      2207      2210      2207      2210      2211      2207      2210      2212
      2207      2210      2213      2211      2210      2212      2211      2210      2213
      2212      2210      2213      2215      2214      2218      2215      2214      2222
      2215      2214      2226      2218      2214      2222      2218      2214      2226
      2222      2214      2226      2214      2215      2216      2214      2215      2217
      2214      2215      2230      2216      2215      2217      2216      2215      2230
      2217      2215      2230      2214      2218      2219      2214      2218      2220
      2214      2218      2221      2219      2218      2220      2219      2218      2221
      2220      2218      2221      2214      2222      2223      2214      2222      2224
      2214      2222      2225      2223      2222      2224      2223      2222      2225
      2224      2222      2225      2214      2226      2227      2214      2226      2228
      2214      2226      2229      2227      2226      2228      2227      2226      2229
      2228      2226      2229      2215      2230      2231      2215      2230      2232
      2215      2230      2236      2231      2230      2232      2231      2230      2236
      2232      2230      2236      2234      2233      2235      2234      2233      2236
      2234      2233      2237      2235      2233      2236      2235      2233      2237
      2236      2233      2237      2230      2236      2233      2233      2237      2238
      2237      2238      2239      2237      2238      2240      2237      2238      2241
      2239      2238      2240      2239      2238      2241      2240      2238      2241
      2238      2241      2242      2238      2241      2243      2238      2241      2249
      2242      2241      2243      2242      2241      2249      2243      2241      2249
      2241      2243      2244      2243      2244      2245      2243      2244      2246
      2245      2244      2246      2244      2246      2247      2244      2246      2248
      2244      2246      2258      2247      2246      2248      2247      2246      2258
      2248      2246      2258      2241      2249      2250      2241      2249      2251
      2241      2249      2252      2250      2249      2251      2250      2249      2252
      2251      2249      2252      2249      2252      2253      2252      2253      2254
      2252      2253      2255      2254      2253      2255      2253      2255      2256
      2253      2255      2257      2253      2255      2305      2256      2255      2257
      2256      2255      2305      2257      2255      2305      2246      2258      2259
      2246      2258      2260      2246      2258      2261      2259      2258      2260
      2259      2258      2261      2260      2258      2261      2258      2261      2262
      2258      2261      2263      2258      2261      2264      2262      2261      2263
      2262      2261      2264      2263      2261      2264      2261      2264      2265
      2261      2264      2266      2261      2264      2267      2265      2264      2266
      2265      2264      2267      2266      2264      2267      2264      2267      2268
      2264      2267      2269      2264      2267      2270      2268      2267      2269
      2268      2267      2270      2269      2267      2270      2267      2270      2271
      2267      2270      2272      2267      2270      2273      2271      2270      2272
      2271      2270      2273      2272      2270      2273      2270      2273      2274
      2270      2273      2275      2270      2273      2276      2274      2273      2275
      2274      2273      2276      2275      2273      2276      2273      2276      2277
      2273      2276      2278      2277      2276      2278      2276      2278      2279
      2276      2278      2280      2279      2278      2280      2278      2280      2281
      2278      2280      2282      2278      2280      2283      2281      2280      2282
      2281      2280      2283      2282      2280      2283      2280      2283      2284
      2280      2283      2285      2280      2283      2286      2284      2283      2285
      2284      2283      2286      2285      2283      2286      2283      2286      2287
      2283      2286      2288      2283      2286      2289      2287      2286      2288
      2287      2286      2289      2288      2286      2289      2286      2289      2290
      2286      2289      2291      2286      2289      2292      2290      2289      2291
      2290      2289      2292      2291      2289      2292      2289      2292      2293
      2289      2292      2294      2289      2292      2295      2293      2292      2294
      2293      2292      2295      2294      2292      2295      2292      2295      2296
      2292      2295      2297      2292      2295      2298      2296      2295      2297
      2296      2295      2298      2297      2295      2298      2295      2298      2299
      2295      2298      2300      2295      2298      2301      2299      2298      2300
      2299      2298      2301      2300      2298      2301      2298      2301      2302
      2298      2301      2303      2298      2301      2304      2302      2301      2303
      2302      2301      2304      2303      2301      2304      2255      2305      2306
      2255      2305      2307      2255      2305      2308      2306      2305      2307
      2306      2305      2308      2307      2305      2308      2305      2308      2309
      2305      2308      2310      2305      2308      2311      2309      2308      2310
      2309      2308      2311      2310      2308      2311      2308      2311      2312
      2308      2311      2313      2308      2311      2314      2312      2311      2313
      2312      2311      2314      2313      2311      2314      2311      2314      2315
      2311      2314      2316      2311      2314      2317      2315      2314      2316
      2315      2314      2317      2316      2314      2317      2314      2317      2318
      2314      2317      2319      2314      2317      2320      2318      2317      2319
      2318      2317      2320      2319      2317      2320      2317      2320      2321
      2317      2320      2322      2317      2320      2323      2321      2320      2322
      2321      2320      2323      2322      2320      2323      2320      2323      2324
      2320      2323      2325      2320      2323      2326      2324      2323      2325
      2324      2323      2326      2325      2323      2326      2323      2326      2327
      2323      2326      2328      2323      2326      2329      2327      2326      2328
      2327      2326      2329      2328      2326      2329      2326      2329      2330
      2326      2329      2331      2326      2329      2332      2330      2329      2331
      2330      2329      2332      2331      2329      2332      2329      2332      2333
      2329      2332      2334      2329      2332      2335      2333      2332      2334
      2333      2332      2335      2334      2332      2335      2332      2335      2336
      2332      2335      2337      2332      2335      2338      2336      2335      2337
      2336      2335      2338      2337      2335      2338      2335      2338      2339
      2335      2338      2340      2335      2338      2341      2339      2338      2340
      2339      2338      2341      2340      2338      2341      2338      2341      2342
      2338      2341      2343      2338      2341      2344      2342      2341      2343
      2342      2341      2344      2343      2341      2344      2341      2344      2345
      2341      2344      2346      2341      2344      2347      2345      2344      2346
      2345      2344      2347      2346      2344      2347      2349      2348      2352
      2349      2348      2356      2349      2348      2360      2352      2348      2356
      2352      2348      2360      2356      2348      2360      2348      2349      2350
      2348      2349      2351      2348      2349      2364      2350      2349      2351
      2350      2349      2364      2351      2349      2364      2348      2352      2353
      2348      2352      2354      2348      2352      2355      2353      2352      2354
      2353      2352      2355      2354      2352      2355      2348      2356      2357
      2348      2356      2358      2348      2356      2359      2357      2356      2358
      2357      2356      2359      2358      2356      2359      2348      2360      2361
      2348      2360      2362      2348      2360      2363      2361      2360      2362
      2361      2360      2363      2362      2360      2363      2349      2364      2365
      2349      2364      2366      2349      2364      2370      2365      2364      2366
      2365      2364      2370      2366      2364      2370      2368      2367      2369
      2368      2367      2370      2368      2367      2371      2369      2367      2370
      2369      2367      2371      2370      2367      2371      2364      2370      2367
      2367      2371      2372      2371      2372      2373      2371      2372      2374
      2371      2372      2375      2373      2372      2374      2373      2372      2375
      2374      2372      2375      2372      2375      2376      2372      2375      2377
      2372      2375      2383      2376      2375      2377      2376      2375      2383
      2377      2375      2383      2375      2377      2378      2377      2378      2379
      2377      2378      2380      2379      2378      2380      2378      2380      2381
      2378      2380      2382      2378      2380      2392      2381      2380      2382
      2381      2380      2392      2382      2380      2392      2375      2383      2384
      2375      2383      2385      2375      2383      2386      2384      2383      2385
      2384      2383      2386      2385      2383      2386      2383      2386      2387
      2386      2387      2388      2386      2387      2389      2388      2387      2389
      2387      2389      2390      2387      2389      2391      2387      2389      2439
      2390      2389      2391      2390      2389      2439      2391      2389      2439
      2380      2392      2393      2380      2392      2394      2380      2392      2395
      2393      2392      2394      2393      2392      2395      2394      2392      2395
      2392      2395      2396      2392      2395      2397      2392      2395      2398
      2396      2395      2397      2396      2395      2398      2397      2395      2398
      2395      2398      2399      2395      2398      2400      2395      2398      2401
      2399      2398      2400      2399      2398      2401      2400      2398      2401
      2398      2401      2402      2398      2401      2403      2398      2401      2404
      2402      2401      2403      2402      2401      2404      2403      2401      2404
      2401      2404      2405      2401      2404      2406      2401      2404      2407
      2405      2404      2406      2405      2404      2407      2406      2404      2407
      2404      2407      2408      2404      2407      2409      2404      2407      2410
      2408      2407      2409      2408      2407      2410      2409      2407      2410
      2407      2410      2411      2407      2410      2412      2411      2410      2412
      2410      2412      2413      2410      2412      2414      2413      2412      2414
      2412      2414      2415      2412      2414      2416      2412      2414      2417
      2415      2414      2416      2415      2414      2417      2416      2414      2417
      2414      2417      2418      2414      2417      2419      2414      2417      2420
      2418      2417      2419      2418      2417      2420      2419      2417      2420
      2417      2420      2421      2417      2420      2422      2417      2420      2423
      2421      2420      2422      2421      2420      2423      2422      2420      2423
      2420      2423      2424      2420      2423      2425      2420      2423      2426
      2424      2423      2425      2424      2423      2426      2425      2423      2426
      2423      2426      2427      2423      2426      2428      2423      2426      2429
      2427      2426      2428      2427      2426      2429      2428      2426      2429
      2426      2429      2430      2426      2429      2431      2426      2429      2432
      2430      2429      2431      2430      2429      2432      2431      2429      2432
      2429      2432      2433      2429      2432      2434      2429      2432      2435
      2433      2432      2434      2433      2432      2435      2434      2432      2435
      2432      2435      2436      2432      2435      2437      2432      2435      2438
      2436      2435      2437      2436      2435      2438      2437      2435      2438
      2389      2439      2440      2389      2439      2441      2389      2439      2442
      2440      2439      2441      2440      2439      2442      2441      2439      2442
      2439      2442      2443      2439      2442      2444      2439      2442      2445
      2443      2442      2444      2443      2442      2445      2444      2442      2445
      2442      2445      2446      2442      2445      2447      2442      2445      2448
      2446      2445      2447      2446      2445      2448      2447      2445      2448
      2445      2448      2449      2445      2448      2450      2445      2448      2451
      2449      2448      2450      2449      2448      2451      2450      2448      2451
      2448      2451      2452      2448      2451      2453      2448      2451      2454
      2452      2451      2453      2452      2451      2454      2453      2451      2454
      2451      2454      2455      2451      2454      2456      2451      2454      2457
      2455      2454      2456      2455      2454      2457      2456      2454      2457
      2454      2457      2458      2454      2457      2459      2454      2457      2460
      2458      2457      2459      2458      2457      2460      2459      2457      2460
      2457      2460      2461      2457      2460      2462      2457      2460      2463
      2461      2460      2462      2461      2460      2463      2462      2460      2463
      2460      2463      2464      2460      2463      2465      2460      2463      2466
      2464      2463      2465      2464      2463      2466      2465      2463      2466
      2463      2466      2467      2463      2466      2468      2463      2466      2469
      2467      2466      2468      2467      2466      2469      2468      2466      2469
      2466      2469      2470      2466      2469      2471      2466      2469      2472
      2470      2469      2471      2470      2469      2472      2471      2469      2472
      2469      2472      2473      2469      2472      2474      2469      2472      2475
      2473      2472      2474      2473      2472      2475      2474      2472      2475
      2472      2475      2476      2472      2475      2477      2472      2475      2478
      2476      2475      2477      2476      2475      2478      2477      2475      2478
      2475      2478      2479      2475      2478      2480      2475      2478      2481
      2479      2478      2480      2479      2478      2481      2480      2478      2481
      2483      2482      2486      2483      2482      2490      2483      2482      2494
      2486      2482      2490      2486      2482      2494      2490      2482      2494
      2482      2483      2484      2482      2483      2485      2482      2483      2498
      2484      2483      2485      2484      2483      2498      2485      2483      2498
      2482      2486      2487      2482      2486      2488      2482      2486      2489
      2487      2486      2488      2487      2486      2489      2488      2486      2489
      2482      2490      2491      2482      2490      2492      2482      2490      2493
      2491      2490      2492      2491      2490      2493      2492      2490      2493
      2482      2494      2495      2482      2494      2496      2482      2494      2497
      2495      2494      2496      2495      2494      2497      2496      2494      2497
      2483      2498      2499      2483      2498      2500      2483      2498      2504
      2499      2498      2500      2499      2498      2504      2500      2498      2504
      2502      2501      2503      2502      2501      2504      2502      2501      2505
      2503      2501      2504      2503      2501      2505      2504      2501      2505
      2498      2504      2501      2501      2505      2506      2505      2506      2507
      2505      2506      2508      2505      2506      2509      2507      2506      2508
      2507      2506      2509      2508      2506      2509      2506      2509      2510
      2506      2509      2511      2506      2509      2517      2510      2509      2511
      2510      2509      2517      2511      2509      2517      2509      2511      2512
      2511      2512      2513      2511      2512      2514      2513      2512      2514
      2512      2514      2515      2512      2514      2516      2512      2514      2526
      2515      2514      2516      2515      2514      2526      2516      2514      2526
      2509      2517      2518      2509      2517      2519      2509      2517      2520
      2518      2517      2519      2518      2517      2520      2519      2517      2520
      2517      2520      2521      2520      2521      2522      2520      2521      2523
      2522      2521      2523      2521      2523      2524      2521      2523      2525
      2521      2523      2573      2524      2523      2525      2524      2523      2573
      2525      2523      2573      2514      2526      2527      2514      2526      2528
      2514      2526      2529      2527      2526      2528      2527      2526      2529
      2528      2526      2529      2526      2529      2530      2526      2529      2531
      2526      2529      2532      2530      2529      2531      2530      2529      2532
      2531      2529      2532      2529      2532      2533      2529      2532      2534
      2529      2532      2535      2533      2532      2534      2533      2532      2535
      2534      2532      2535      2532      2535      2536      2532      2535      2537
      2532      2535      2538      2536      2535      2537      2536      2535      2538
      2537      2535      2538      2535      2538      2539      2535      2538      2540
      2535      2538      2541      2539      2538      2540      2539      2538      2541
      2540      2538      2541      2538      2541      2542      2538      2541      2543
      2538      2541      2544      2542      2541      2543      2542      2541      2544
      2543      2541      2544      2541      2544      2545      2541      2544      2546
      2545      2544      2546      2544      2546      2547      2544      2546      2548
      2547      2546      2548      2546      2548      2549      2546      2548      2550
      2546      2548      2551      2549      2548      2550      2549      2548      2551
      2550      2548      2551      2548      2551      2552      2548      2551      2553
      2548      2551      2554      2552      2551      2553      2552      2551      2554
      2553      2551      2554      2551      2554      2555      2551      2554      2556
      2551      2554      2557      2555      2554      2556      2555      2554      2557
      2556      2554      2557      2554      2557      2558      2554      2557      2559
      2554      2557      2560      2558      2557      2559      2558      2557      2560
      2559      2557      2560      2557      2560      2561      2557      2560      2562
      2557      2560      2563      2561      2560      2562      2561      2560      2563
      2562      2560      2563      2560      2563      2564      2560      2563      2565
      2560      2563      2566      2564      2563      2565      2564      2563      2566
      2565      2563      2566      2563      2566      2567      2563      2566      2568
      2563      2566      2569      2567      2566      2568      2567      2566      2569
      2568      2566      2569      2566      2569      2570      2566      2569      2571
      2566      2569      2572      2570      2569      2571      2570      2569      2572
      2571      2569      2572      2523      2573      2574      2523      2573      2575
      2523      2573      2576      2574      2573      2575      2574      2573      2576
      2575      2573      2576      2573      2576      2577      2573      2576      2578
      2573      2576      2579      2577      2576      2578      2577      2576      2579
      2578      2576      2579      2576      2579      2580      2576      2579      2581
      2576      2579      2582      2580      2579      2581      2580      2579      2582
      2581      2579      2582      2579      2582      2583      2579      2582      2584
      2579      2582      2585      2583      2582      2584      2583      2582      2585
      2584      2582      2585      2582      2585      2586      2582      2585      2587
      2582      2585      2588      2586      2585      2587      2586      2585      2588
      2587      2585      2588      2585      2588      2589      2585      2588      2590
      2585      2588      2591      2589      2588      2590      2589      2588      2591
      2590      2588      2591      2588      2591      2592      2588      2591      2593
      2588      2591      2594      2592      2591      2593      2592      2591      2594
      2593      2591      2594      2591      2594      2595      2591      2594      2596
      2591      2594      2597      2595      2594      2596      2595      2594      2597
      2596      2594      2597      2594      2597      2598      2594      2597      2599
      2594      2597      2600      2598      2597      2599      2598      2597      2600
      2599      2597      2600      2597      2600      2601      2597      2600      2602
      2597      2600      2603      2601      2600      2602      2601      2600      2603
      2602      2600      2603      2600      2603      2604      2600      2603      2605
      2600      2603      2606      2604      2603      2605      2604      2603      2606
      2605      2603      2606      2603      2606      2607      2603      2606      2608
      2603      2606      2609      2607      2606      2608      2607      2606      2609
      2608      2606      2609      2606      2609      2610      2606      2609      2611
      2606      2609      2612      2610      2609      2611      2610      2609      2612
      2611      2609      2612      2609      2612      2613      2609      2612      2614
      2609      2612      2615      2613      2612      2614      2613      2612      2615
      2614      2612      2615      2617      2616      2618      2617      2616      2619
      2617      2616      2620      2618      2616      2619      2618      2616      2620
      2619      2616      2620      2616      2620      2621      2616      2620      2622
      2616      2620      2625      2621      2620      2622      2621      2620      2625
      2622      2620      2625      2620      2622      2623      2620      2622      2624
      2623      2622      2624      2620      2625      2626      2620      2625      2627
      2620      2625      2631      2626      2625      2627      2626      2625      2631
      2627      2625      2631      2629      2628      2630      2629      2628      2631
      2629      2628      2632      2630      2628      2631      2630      2628      2632
      2631      2628      2632      2625      2631      2628      2628      2632      2633
      2632      2633      2634      2632      2633      2635      2632      2633      2636
      2634      2633      2635      2634      2633      2636      2635      2633      2636
      2633      2636      2637      2633      2636      2638      2633      2636      2644
      2637      2636      2638      2637      2636      2644      2638      2636      2644
      2636      2638      2639      2638      2639      2640      2638      2639      2641
      2640      2639      2641      2639      2641      2642      2639      2641      2643
      2639      2641      2653      2642      2641      2643      2642      2641      2653
      2643      2641      2653      2636      2644      2645      2636      2644      2646
      2636      2644      2647      2645      2644      2646      2645      2644      2647
      2646      2644      2647      2644      2647      2648      2647      2648      2649
      2647      2648      2650      2649      2648      2650      2648      2650      2651
      2648      2650      2652      2648      2650      2700      2651      2650      2652
      2651      2650      2700      2652      2650      2700      2641      2653      2654
      2641      2653      2655      2641      2653      2656      2654      2653      2655
      2654      2653      2656      2655      2653      2656      2653      2656      2657
      2653      2656      2658      2653      2656      2659      2657      2656      2658
      2657      2656      2659      2658      2656      2659      2656      2659      2660
      2656      2659      2661      2656      2659      2662      2660      2659      2661
      2660      2659      2662      2661      2659      2662      2659      2662      2663
      2659      2662      2664      2659      2662      2665      2663      2662      2664
      2663      2662      2665      2664      2662      2665      2662      2665      2666
      2662      2665      2667      2662      2665      2668      2666      2665      2667
      2666      2665      2668      2667      2665      2668      2665      2668      2669
      2665      2668      2670      2665      2668      2671      2669      2668      2670
      2669      2668      2671      2670      2668      2671      2668      2671      2672
      2668      2671      2673      2672      2671      2673      2671      2673      2674
      2671      2673      2675      2674      2673      2675      2673      2675      2676
      2673      2675      2677      2673      2675      2678      2676      2675      2677
      2676      2675      2678      2677      2675      2678      2675      2678      2679
      2675      2678      2680      2675      2678      2681      2679      2678      2680
      2679      2678      2681      2680      2678      2681      2678      2681      2682
      2678      2681      2683      2678      2681      2684      2682      2681      2683
      2682      2681      2684      2683      2681      2684      2681      2684      2685
      2681      2684      2686      2681      2684      2687      2685      2684      2686
      2685      2684      2687      2686      2684      2687      2684      2687      2688
      2684      2687      2689      2684      2687      2690      2688      2687      2689
      2688      2687      2690      2689      2687      2690      2687      2690      2691
      2687      2690      2692      2687      2690      2693      2691      2690      2692
      2691      2690      2693      2692      2690      2693      2690      2693      2694
      2690      2693      2695      2690      2693      2696      2694      2693      2695
      2694      2693      2696      2695      2693      2696      2693      2696      2697
      2693      2696      2698      2693      2696      2699      2697      2696      2698
      2697      2696      2699      2698      2696      2699      2650      2700      2701
      2650      2700      2702      2650      2700      2703      2701      2700      2702
      2701      2700      2703      2702      2700      2703      2700      2703      2704
      2700      2703      2705      2700      2703      2706      2704      2703      2705
      2704      2703      2706      2705      2703      2706      2703      2706      2707
      2703      2706      2708      2703      2706      2709      2707      2706      2708
      2707      2706      2709      2708      2706      2709      2706      2709      2710
      2706      2709      2711      2706      2709      2712      2710      2709      2711
      2710      2709      2712      2711      2709      2712      2709      2712      2713
      2709      2712      2714      2709      2712      2715      2713      2712      2714
      2713      2712      2715      2714      2712      2715      2712      2715      2716
      2712      2715      2717      2712      2715      2718      2716      2715      2717
      2716      2715      2718      2717      2715      2718      2715      2718      2719
      2715      2718      2720      2715      2718      2721      2719      2718      2720
      2719      2718      2721      2720      2718      2721      2718      2721      2722
      2718      2721      2723      2718      2721      2724      2722      2721      2723
      2722      2721      2724      2723      2721      2724      2721      2724      2725
      2721      2724      2726      2721      2724      2727      2725      2724      2726
      2725      2724      2727      2726      2724      2727      2724      2727      2728
      2724      2727      2729      2724      2727      2730      2728      2727      2729
      2728      2727      2730      2729      2727      2730      2727      2730      2731
      2727      2730      2732      2727      2730      2733      2731      2730      2732
      2731      2730      2733      2732      2730      2733      2730      2733      2734
      2730      2733      2735      2730      2733      2736      2734      2733      2735
      2734      2733      2736      2735      2733      2736      2733      2736      2737
      2733      2736      2738      2733      2736      2739      2737      2736      2738
      2737      2736      2739      2738      2736      2739      2736      2739      2740
      2736      2739      2741      2736      2739      2742      2740      2739      2741
      2740      2739      2742      2741      2739      2742      2744      2743      2745
      2744      2743      2746      2744      2743      2747      2745      2743      2746
      2745      2743      2747      2746      2743      2747      2743      2747      2748
      2743      2747      2749      2743      2747      2752      2748      2747      2749
      2748      2747      2752      2749      2747      2752      2747      2749      2750
      2747      2749      2751      2750      2749      2751      2747      2752      2753
      2747      2752      2754      2747      2752      2758      2753      2752      2754
      2753      2752      2758      2754      2752      2758      2756      2755      2757
      2756      2755      2758      2756      2755      2759      2757      2755      2758
      2757      2755      2759      2758      2755      2759      2752      2758      2755
      2755      2759      2760      2759      2760      2761      2759      2760      2762
      2759      2760      2763      2761      2760      2762      2761      2760      2763
      2762      2760      2763      2760      2763      2764      2760      2763      2765
      2760      2763      2771      2764      2763      2765      2764      2763      2771
      2765      2763      2771      2763      2765      2766      2765      2766      2767
      2765      2766      2768      2767      2766      2768      2766      2768      2769
      2766      2768      2770      2766      2768      2780      2769      2768      2770
      2769      2768      2780      2770      2768      2780      2763      2771      2772
      2763      2771      2773      2763      2771      2774      2772      2771      2773
      2772      2771      2774      2773      2771      2774      2771      2774      2775
      2774      2775      2776      2774      2775      2777      2776      2775      2777
      2775      2777      2778      2775      2777      2779      2775      2777      2827
      2778      2777      2779      2778      2777      2827      2779      2777      2827
      2768      2780      2781      2768      2780      2782      2768      2780      2783
      2781      2780      2782      2781      2780      2783      2782      2780      2783
      2780      2783      2784      2780      2783      2785      2780      2783      2786
      2784      2783      2785      2784      2783      2786      2785      2783      2786
      2783      2786      2787      2783      2786      2788      2783      2786      2789
      2787      2786      2788      2787      2786      2789      2788      2786      2789
      2786      2789      2790      2786      2789      2791      2786      2789      2792
      2790      2789      2791      2790      2789      2792      2791      2789      2792
      2789      2792      2793      2789      2792      2794      2789      2792      2795
      2793      2792      2794      2793      2792      2795      2794      2792      2795
      2792      2795      2796      2792      2795      2797      2792      2795      2798
      2796      2795      2797      2796      2795      2798      2797      2795      2798
      2795      2798      2799      2795      2798      2800      2799      2798      2800
      2798      2800      2801      2798      2800      2802      2801      2800      2802
      2800      2802      2803      2800      2802      2804      2800      2802      2805
      2803      2802      2804      2803      2802      2805      2804      2802      2805
      2802      2805      2806      2802      2805      2807      2802      2805      2808
      2806      2805      2807      2806      2805      2808      2807      2805      2808
      2805      2808      2809      2805      2808      2810      2805      2808      2811
      2809      2808      2810      2809      2808      2811      2810      2808      2811
      2808      2811      2812      2808      2811      2813      2808      2811      2814
      2812      2811      2813      2812      2811      2814      2813      2811      2814
      2811      2814      2815      2811      2814      2816      2811      2814      2817
      2815      2814      2816      2815      2814      2817      2816      2814      2817
      2814      2817      2818      2814      2817      2819      2814      2817      2820
      2818      2817      2819      2818      2817      2820      2819      2817      2820
      2817      2820      2821      2817      2820      2822      2817      2820      2823
      2821      2820      2822      2821      2820      2823      2822      2820      2823
      2820      2823      2824      2820      2823      2825      2820      2823      2826
      2824      2823      2825      2824      2823      2826      2825      2823      2826
      2777      2827      2828      2777      2827      2829      2777      2827      2830
      2828      2827      2829      2828      2827      2830      2829      2827      2830
      2827      2830      2831      2827      2830      2832      2827      2830      2833
      2831      2830      2832      2831      2830      2833      2832      2830      2833
      2830      2833      2834      2830      2833      2835      2830      2833      2836
      2834      2833      2835      2834      2833      2836      2835      2833      2836
      2833      2836      2837      2833      2836      2838      2833      2836      2839
      2837      2836      2838      2837      2836      2839      2838      2836      2839
      2836      2839      2840      2836      2839      2841      2836      2839      2842
      2840      2839      2841      2840      2839      2842      2841      2839      2842
      2839      2842      2843      2839      2842      2844      2839      2842      2845
      2843      2842      2844      2843      2842      2845      2844      2842      2845
      2842      2845      2846      2842      2845      2847      2842      2845      2848
      2846      2845      2847      2846      2845      2848      2847      2845      2848
      2845      2848      2849      2845      2848      2850      2845      2848      2851
      2849      2848      2850      2849      2848      2851      2850      2848      2851
      2848      2851      2852      2848      2851      2853      2848      2851      2854
      2852      2851      2853      2852      2851      2854      2853      2851      2854
      2851      2854      2855      2851      2854      2856      2851      2854      2857
      2855      2854      2856      2855      2854      2857      2856      2854      2857
      2854      2857      2858      2854      2857      2859      2854      2857      2860
      2858      2857      2859      2858      2857      2860      2859      2857      2860
      2857      2860      2861      2857      2860      2862      2857      2860      2863
      2861      2860      2862      2861      2860      2863      2862      2860      2863
      2860      2863      2864      2860      2863      2865      2860      2863      2866
      2864      2863      2865      2864      2863      2866      2865      2863      2866
      2863      2866      2867      2863      2866      2868      2863      2866      2869
      2867      2866      2868      2867      2866      2869      2868      2866      2869
      2871      2870      2874      2871      2870      2878      2871      2870      2882
      2874      2870      2878      2874      2870      2882      2878      2870      2882
      2870      2871      2872      2870      2871      2873      2870      2871      2886
      2872      2871      2873      2872      2871      2886      2873      2871      2886
      2870      2874      2875      2870      2874      2876      2870      2874      2877
      2875      2874      2876      2875      2874      2877      2876      2874      2877
      2870      2878      2879      2870      2878      2880      2870      2878      2881
      2879      2878      2880      2879      2878      2881      2880      2878      2881
      2870      2882      2883      2870      2882      2884      2870      2882      2885
      2883      2882      2884      2883      2882      2885      2884      2882      2885
      2871      2886      2887      2871      2886      2888      2871      2886      2892
      2887      2886      2888      2887      2886      2892      2888      2886      2892
      2890      2889      2891      2890      2889      2892      2890      2889      2893
      2891      2889      2892      2891      2889      2893      2892      2889      2893
      2886      2892      2889      2889      2893      2894      2893      2894      2895
      2893      2894      2896      2893      2894      2897      2895      2894      2896
      2895      2894      2897      2896      2894      2897      2894      2897      2898
      2894      2897      2899      2894      2897      2905      2898      2897      2899
      2898      2897      2905      2899      2897      2905      2897      2899      2900
      2899      2900      2901      2899      2900      2902      2901      2900      2902
      2900      2902      2903      2900      2902      2904      2900      2902      2914
      2903      2902      2904      2903      2902      2914      2904      2902      2914
      2897      2905      2906      2897      2905      2907      2897      2905      2908
      2906      2905      2907      2906      2905      2908      2907      2905      2908
      2905      2908      2909      2908      2909      2910      2908      2909      2911
      2910      2909      2911      2909      2911      2912      2909      2911      2913
      2909      2911      2961      2912      2911      2913      2912      2911      2961
      2913      2911      2961      2902      2914      2915      2902      2914      2916
      2902      2914      2917      2915      2914      2916      2915      2914      2917
      2916      2914      2917      2914      2917      2918      2914      2917      2919
      2914      2917      2920      2918      2917      2919      2918      2917      2920
      2919      2917      2920      2917      2920      2921      2917      2920      2922
      2917      2920      2923      2921      2920      2922      2921      2920      2923
      2922      2920      2923      2920      2923      2924      2920      2923      2925
      2920      2923      2926      2924      2923      2925      2924      2923      2926
      2925      2923      2926      2923      2926      2927      2923      2926      2928
      2923      2926      2929      2927      2926      2928      2927      2926      2929
      2928      2926      2929      2926      2929      2930      2926      2929      2931
      2926      2929      2932      2930      2929      2931      2930      2929      2932
      2931      2929      2932      2929      2932      2933      2929      2932      2934
      2933      2932      2934      2932      2934      2935      2932      2934      2936
      2935      2934      2936      2934      2936      2937      2934      2936      2938
      2934      2936      2939      2937      2936      2938      2937      2936      2939
      2938      2936      2939      2936      2939      2940      2936      2939      2941
      2936      2939      2942      2940      2939      2941      2940      2939      2942
      2941      2939      2942      2939      2942      2943      2939      2942      2944
      2939      2942      2945      2943      2942      2944      2943      2942      2945
      2944      2942      2945      2942      2945      2946      2942      2945      2947
      2942      2945      2948      2946      2945      2947      2946      2945      2948
      2947      2945      2948      2945      2948      2949      2945      2948      2950
      2945      2948      2951      2949      2948      2950      2949      2948      2951
      2950      2948      2951      2948      2951      2952      2948      2951      2953
      2948      2951      2954      2952      2951      2953      2952      2951      2954
      2953      2951      2954      2951      2954      2955      2951      2954      2956
      2951      2954      2957      2955      2954      2956      2955      2954      2957
      2956      2954      2957      2954      2957      2958      2954      2957      2959
      2954      2957      2960      2958      2957      2959      2958      2957      2960
      2959      2957      2960      2911      2961      2962      2911      2961      2963
      2911      2961      2964      2962      2961      2963      2962      2961      2964
      2963      2961      2964      2961      2964      2965      2961      2964      2966
      2961      2964      2967      2965      2964      2966      2965      2964      2967
      2966      2964      2967      2964      2967      2968      2964      2967      2969
      2964      2967      2970      2968      2967      2969      2968      2967      2970
      2969      2967      2970      2967      2970      2971      2967      2970      2972
      2967      2970      2973      2971      2970      2972      2971      2970      2973
      2972      2970      2973      2970      2973      2974      2970      2973      2975
      2970      2973      2976      2974      2973      2975      2974      2973      2976
      2975      2973      2976      2973      2976      2977      2973      2976      2978
      2973      2976      2979      2977      2976      2978      2977      2976      2979
      2978      2976      2979      2976      2979      2980      2976      2979      2981
      2976      2979      2982      2980      2979      2981      2980      2979      2982
      2981      2979      2982      2979      2982      2983      2979      2982      2984
      2979      2982      2985      2983      2982      2984      2983      2982      2985
      2984      2982      2985      2982      2985      2986      2982      2985      2987
      2982      2985      2988      2986      2985      2987      2986      2985      2988
      2987      2985      2988      2985      2988      2989      2985      2988      2990
      2985      2988      2991      2989      2988      2990      2989      2988      2991
      2990      2988      2991      2988      2991      2992      2988      2991      2993
      2988      2991      2994      2992      2991      2993      2992      2991      2994
      2993      2991      2994      2991      2994      2995      2991      2994      2996
      2991      2994      2997      2995      2994      2996      2995      2994      2997
      2996      2994      2997      2994      2997      2998      2994      2997      2999
      2994      2997      3000      2998      2997      2999      2998      2997      3000
      2999      2997      3000      2997      3000      3001      2997      3000      3002
      2997      3000      3003      3001      3000      3002      3001      3000      3003
      3002      3000      3003      3005      3004      3008      3005      3004      3012
      3005      3004      3016      3008      3004      3012      3008      3004      3016
      3012      3004      3016      3004      3005      3006      3004      3005      3007
      3004      3005      3020      3006      3005      3007      3006      3005      3020
      3007      3005      3020      3004      3008      3009      3004      3008      3010
      3004      3008      3011      3009      3008      3010      3009      3008      3011
      3010      3008      3011      3004      3012      3013      3004      3012      3014
      3004      3012      3015      3013      3012      3014      3013      3012      3015
      3014      3012      3015      3004      3016      3017      3004      3016      3018
      3004      3016      3019      3017      3016      3018      3017      3016      3019
      3018      3016      3019      3005      3020      3021      3005      3020      3022
      3005      3020      3026      3021      3020      3022      3021      3020      3026
      3022      3020      3026      3024      3023      3025      3024      3023      3026
      3024      3023      3027      3025      3023      3026      3025      3023      3027
      3026      3023      3027      3020      3026      3023      3023      3027      3028
      3027      3028      3029      3027      3028      3030      3027      3028      3031
      3029      3028      3030      3029      3028      3031      3030      3028      3031
      3028      3031      3032      3028      3031      3033      3028      3031      3039
      3032      3031      3033      3032      3031      3039      3033      3031      3039
      3031      3033      3034      3033      3034      3035      3033      3034      3036
      3035      3034      3036      3034      3036      3037      3034      3036      3038
      3034      3036      3048      3037      3036      3038      3037      3036      3048
      3038      3036      3048      3031      3039      3040      3031      3039      3041
      3031      3039      3042      3040      3039      3041      3040      3039      3042
      3041      3039      3042      3039      3042      3043      3042      3043      3044
      3042      3043      3045      3044      3043      3045      3043      3045      3046
      3043      3045      3047      3043      3045      3095      3046      3045      3047
      3046      3045      3095      3047      3045      3095      3036      3048      3049
      3036      3048      3050      3036      3048      3051      3049      3048      3050
      3049      3048      3051      3050      3048      3051      3048      3051      3052
      3048      3051      3053      3048      3051      3054      3052      3051      3053
      3052      3051      3054      3053      3051      3054      3051      3054      3055
      3051      3054      3056      3051      3054      3057      3055      3054      3056
      3055      3054      3057      3056      3054      3057      3054      3057      3058
      3054      3057      3059      3054      3057      3060      3058      3057      3059
      3058      3057      3060      3059      3057      3060      3057      3060      3061
      3057      3060      3062      3057      3060      3063      3061      3060      3062
      3061      3060      3063      3062      3060      3063      3060      3063      3064
      3060      3063      3065      3060      3063      3066      3064      3063      3065
      3064      3063      3066      3065      3063      3066      3063      3066      3067
      3063      3066      3068      3067      3066      3068      3066      3068      3069
      3066      3068      3070      3069      3068      3070      3068      3070      3071
      3068      3070      3072      3068      3070      3073      3071      3070      3072
      3071      3070      3073      3072      3070      3073      3070      3073      3074
      3070      3073      3075      3070      3073      3076      3074      3073      3075
      3074      3073      3076      3075      3073      3076      3073      3076      3077
      3073      3076      3078      3073      3076      3079      3077      3076      3078
      3077      3076      3079      3078      3076      3079      3076      3079      3080
      3076      3079      3081      3076      3079      3082      3080      3079      3081
      3080      3079      3082      3081      3079      3082      3079      3082      3083
      3079      3082      3084      3079      3082      3085      3083      3082      3084
      3083      3082      3085      3084      3082      3085      3082      3085      3086
      3082      3085      3087      3082      3085      3088      3086      3085      3087
      3086      3085      3088      3087      3085      3088      3085      3088      3089
      3085      3088      3090      3085      3088      3091      3089      3088      3090
      3089      3088      3091      3090      3088      3091      3088      3091      3092
      3088      3091      3093      3088      3091      3094      3092      3091      3093
      3092      3091      3094      3093      3091      3094      3045      3095      3096
      3045      3095      3097      3045      3095      3098      3096      3095      3097
      3096      3095      3098      3097      3095      3098      3095      3098      3099
      3095      3098      3100      3095      3098      3101      3099      3098      3100
      3099      3098      3101      3100      3098      3101      3098      3101      3102
      3098      3101      3103      3098      3101      3104      3102      3101      3103
      3102      3101      3104      3103      3101      3104      3101      3104      3105
      3101      3104      3106      3101      3104      3107      3105      3104      3106
      3105      3104      3107      3106      3104      3107      3104      3107      3108
      3104      3107      3109      3104      3107      3110      3108      3107      3109
      3108      3107      3110      3109      3107      3110      3107      3110      3111
      3107      3110      3112      3107      3110      3113      3111      3110      3112
      3111      3110      3113      3112      3110      3113      3110      3113      3114
      3110      3113      3115      3110      3113      3116      3114      3113      3115
      3114      3113      3116      3115      3113      3116      3113      3116      3117
      3113      3116      3118      3113      3116      3119      3117      3116      3118
      3117      3116      3119      3118      3116      3119      3116      3119      3120
      3116      3119      3121      3116      3119      3122      3120      3119      3121
      3120      3119      3122      3121      3119      3122      3119      3122      3123
      3119      3122      3124      3119      3122      3125      3123      3122      3124
      3123      3122      3125      3124      3122      3125      3122      3125      3126
      3122      3125      3127      3122      3125      3128      3126      3125      3127
      3126      3125      3128      3127      3125      3128      3125      3128      3129
      3125      3128      3130      3125      3128      3131      3129      3128      3130
      3129      3128      3131      3130      3128      3131      3128      3131      3132
      3128      3131      3133      3128      3131      3134      3132      3131      3133
      3132      3131      3134      3133      3131      3134      3131      3134      3135
      3131      3134      3136      3131      3134      3137      3135      3134      3136
      3135      3134      3137      3136      3134      3137      3139      3138      3140
      3139      3138      3141      3139      3138      3142      3140      3138      3141
      3140      3138      3142      3141      3138      3142      3138      3142      3143
      3138      3142      3144      3138      3142      3147      3143      3142      3144
      3143      3142      3147      3144      3142      3147      3142      3144      3145
      3142      3144      3146      3145      3144      3146      3142      3147      3148
      3142      3147      3149      3142      3147      3153      3148      3147      3149
      3148      3147      3153      3149      3147      3153      3151      3150      3152
      3151      3150      3153      3151      3150      3154      3152      3150      3153
      3152      3150      3154      3153      3150      3154      3147      3153      3150
      3150      3154      3155      3154      3155      3156      3154      3155      3157
      3154      3155      3158      3156      3155      3157      3156      3155      3158
      3157      3155      3158      3155      3158      3159      3155      3158      3160
      3155      3158      3166      3159      3158      3160      3159      3158      3166
      3160      3158      3166      3158      3160      3161      3160      3161      3162
      3160      3161      3163      3162      3161      3163      3161      3163      3164
      3161      3163      3165      3161      3163      3175      3164      3163      3165
      3164      3163      3175      3165      3163      3175      3158      3166      3167
      3158      3166      3168      3158      3166      3169      3167      3166      3168
      3167      3166      3169      3168      3166      3169      3166      3169      3170
      3169      3170      3171      3169      3170      3172      3171      3170      3172
      3170      3172      3173      3170      3172      3174      3170      3172      3222
      3173      3172      3174      3173      3172      3222      3174      3172      3222
      3163      3175      3176      3163      3175      3177      3163      3175      3178
      3176      3175      3177      3176      3175      3178      3177      3175      3178
      3175      3178      3179      3175      3178      3180      3175      3178      3181
      3179      3178      3180      3179      3178      3181      3180      3178      3181
      3178      3181      3182      3178      3181      3183      3178      3181      3184
      3182      3181      3183      3182      3181      3184      3183      3181      3184
      3181      3184      3185      3181      3184      3186      3181      3184      3187
      3185      3184      3186      3185      3184      3187      3186      3184      3187
      3184      3187      3188      3184      3187      3189      3184      3187      3190
      3188      3187      3189      3188      3187      3190      3189      3187      3190
      3187      3190      3191      3187      3190      3192      3187      3190      3193
      3191      3190      3192      3191      3190      3193      3192      3190      3193
      3190      3193      3194      3190      3193      3195      3194      3193      3195
      3193      3195      3196      3193      3195      3197      3196      3195      3197
      3195      3197      3198      3195      3197      3199      3195      3197      3200
      3198      3197      3199      3198      3197      3200      3199      3197      3200
      3197      3200      3201      3197      3200      3202      3197      3200      3203
      3201      3200      3202      3201      3200      3203      3202      3200      3203
      3200      3203      3204      3200      3203      3205      3200      3203      3206
      3204      3203      3205      3204      3203      3206      3205      3203      3206
      3203      3206      3207      3203      3206      3208      3203      3206      3209
      3207      3206      3208      3207      3206      3209      3208      3206      3209
      3206      3209      3210      3206      3209      3211      3206      3209      3212
      3210      3209      3211      3210      3209      3212      3211      3209      3212
      3209      3212      3213      3209      3212      3214      3209      3212      3215
      3213      3212      3214      3213      3212      3215      3214      3212      3215
      3212      3215      3216      3212      3215      3217      3212      3215      3218
      3216      3215      3217      3216      3215      3218      3217      3215      3218
      3215      3218      3219      3215      3218      3220      3215      3218      3221
      3219      3218      3220      3219      3218      3221      3220      3218      3221
      3172      3222      3223      3172      3222      3224      3172      3222      3225
      3223      3222      3224      3223      3222      3225      3224      3222      3225
      3222      3225      3226      3222      3225      3227      3222      3225      3228
      3226      3225      3227      3226      3225      3228      3227      3225      3228
      3225      3228      3229      3225      3228      3230      3225      3228      3231
      3229      3228      3230      3229      3228      3231      3230      3228      3231
      3228      3231      3232      3228      3231      3233      3228      3231      3234
      3232      3231      3233      3232      3231      3234      3233      3231      3234
      3231      3234      3235      3231      3234      3236      3231      3234      3237
      3235      3234      3236      3235      3234      3237      3236      3234      3237
      3234      3237      3238      3234      3237      3239      3234      3237      3240
      3238      3237      3239      3238      3237      3240      3239      3237      3240
      3237      3240      3241      3237      3240      3242      3237      3240      3243
      3241      3240      3242      3241      3240      3243      3242      3240      3243
      3240      3243      3244      3240      3243      3245      3240      3243      3246
      3244      3243      3245      3244      3243      3246      3245      3243      3246
      3243      3246      3247      3243      3246      3248      3243      3246      3249
      3247      3246      3248      3247      3246      3249      3248      3246      3249
      3246      3249      3250      3246      3249      3251      3246      3249      3252
      3250      3249      3251      3250      3249      3252      3251      3249      3252
      3249      3252      3253      3249      3252      3254      3249      3252      3255
      3253      3252      3254      3253      3252      3255      3254      3252      3255
      3252      3255      3256      3252      3255      3257      3252      3255      3258
      3256      3255      3257      3256      3255      3258      3257      3255      3258
      3255      3258      3259      3255      3258      3260      3255      3258      3261
      3259      3258      3260      3259      3258      3261      3260      3258      3261
      3258      3261      3262      3258      3261      3263      3258      3261      3264
      3262      3261      3263      3262      3261      3264      3263      3261      3264
      3266      3265      3269      3266      3265      3273      3266      3265      3277
      3269      3265      3273      3269      3265      3277      3273      3265      3277
      3265      3266      3267      3265      3266      3268      3265      3266      3281
      3267      3266      3268      3267      3266      3281      3268      3266      3281
      3265      3269      3270      3265      3269      3271      3265      3269      3272
      3270      3269      3271      3270      3269      3272      3271      3269      3272
      3265      3273      3274      3265      3273      3275      3265      3273      3276
      3274      3273      3275      3274      3273      3276      3275      3273      3276
      3265      3277      3278      3265      3277      3279      3265      3277      3280
      3278      3277      3279      3278      3277      3280      3279      3277      3280
      3266      3281      3282      3266      3281      3283      3266      3281      3287
      3282      3281      3283      3282      3281      3287      3283      3281      3287
      3285      3284      3286      3285      3284      3287      3285      3284      3288
      3286      3284      3287      3286      3284      3288      3287      3284      3288
      3281      3287      3284      3284      3288      3289      3288      3289      3290
      3288      3289      3291      3288      3289      3292      3290      3289      3291
      3290      3289      3292      3291      3289      3292      3289      3292      3293
      3289      3292      3294      3289      3292      3300      3293      3292      3294
      3293      3292      3300      3294      3292      3300      3292      3294      3295
      3294      3295      3296      3294      3295      3297      3296      3295      3297
      3295      3297      3298      3295      3297      3299      3295      3297      3309
      3298      3297      3299      3298      3297      3309      3299      3297      3309
      3292      3300      3301      3292      3300      3302      3292      3300      3303
      3301      3300      3302      3301      3300      3303      3302      3300      3303
      3300      3303      3304      3303      3304      3305      3303      3304      3306
      3305      3304      3306      3304      3306      3307      3304      3306      3308
      3304      3306      3356      3307      3306      3308      3307      3306      3356
      3308      3306      3356      3297      3309      3310      3297      3309      3311
      3297      3309      3312      3310      3309      3311      3310      3309      3312
      3311      3309      3312      3309      3312      3313      3309      3312      3314
      3309      3312      3315      3313      3312      3314      3313      3312      3315
      3314      3312      3315      3312      3315      3316      3312      3315      3317
      3312      3315      3318      3316      3315      3317      3316      3315      3318
      3317      3315      3318      3315      3318      3319      3315      3318      3320
      3315      3318      3321      3319      3318      3320      3319      3318      3321
      3320      3318      3321      3318      3321      3322      3318      3321      3323
      3318      3321      3324      3322      3321      3323      3322      3321      3324
      3323      3321      3324      3321      3324      3325      3321      3324      3326
      3321      3324      3327      3325      3324      3326      3325      3324      3327
      3326      3324      3327      3324      3327      3328      3324      3327      3329
      3328      3327      3329      3327      3329      3330      3327      3329      3331
      3330      3329      3331      3329      3331      3332      3329      3331      3333
      3329      3331      3334      3332      3331      3333      3332      3331      3334
      3333      3331      3334      3331      3334      3335      3331      3334      3336
      3331      3334      3337      3335      3334      3336      3335      3334      3337
      3336      3334      3337      3334      3337      3338      3334      3337      3339
      3334      3337      3340      3338      3337      3339      3338      3337      3340
      3339      3337      3340      3337      3340      3341      3337      3340      3342
      3337      3340      3343      3341      3340      3342      3341      3340      3343
      3342      3340      3343      3340      3343      3344      3340      3343      3345
      3340      3343      3346      3344      3343      3345      3344      3343      3346
      3345      3343      3346      3343      3346      3347      3343      3346      3348
      3343      3346      3349      3347      3346      3348      3347      3346      3349
      3348      3346      3349      3346      3349      3350      3346      3349      3351
      3346      3349      3352      3350      3349      3351      3350      3349      3352
      3351      3349      3352      3349      3352      3353      3349      3352      3354
      3349      3352      3355      3353      3352      3354      3353      3352      3355
      3354      3352      3355      3306      3356      3357      3306      3356      3358
      3306      3356      3359      3357      3356      3358      3357      3356      3359
      3358      3356      3359      3356      3359      3360      3356      3359      3361
      3356      3359      3362      3360      3359      3361      3360      3359      3362
      3361      3359      3362      3359      3362      3363      3359      3362      3364
      3359      3362      3365      3363      3362      3364      3363      3362      3365
      3364      3362      3365      3362      3365      3366      3362      3365      3367
      3362      3365      3368      3366      3365      3367      3366      3365      3368
      3367      3365      3368      3365      3368      3369      3365      3368      3370
      3365      3368      3371      3369      3368      3370      3369      3368      3371
      3370      3368      3371      3368      3371      3372      3368      3371      3373
      3368      3371      3374      3372      3371      3373      3372      3371      3374
      3373      3371      3374      3371      3374      3375      3371      3374      3376
      3371      3374      3377      3375      3374      3376      3375      3374      3377
      3376      3374      3377      3374      3377      3378      3374      3377      3379
      3374      3377      3380      3378      3377      3379      3378      3377      3380
      3379      3377      3380      3377      3380      3381      3377      3380      3382
      3377      3380      3383      3381      3380      3382      3381      3380      3383
      3382      3380      3383      3380      3383      3384      3380      3383      3385
      3380      3383      3386      3384      3383      3385      3384      3383      3386
      3385      3383      3386      3383      3386      3387      3383      3386      3388
      3383      3386      3389      3387      3386      3388      3387      3386      3389
      3388      3386      3389      3386      3389      3390      3386      3389      3391
      3386      3389      3392      3390      3389      3391      3390      3389      3392
      3391      3389      3392      3389      3392      3393      3389      3392      3394
      3389      3392      3395      3393      3392      3394      3393      3392      3395
      3394      3392      3395      3392      3395      3396      3392      3395      3397
      3392      3395      3398      3396      3395      3397      3396      3395      3398
      3397      3395      3398      3400      3399      3403      3400      3399      3407
      3400      3399      3411      3403      3399      3407      3403      3399      3411
      3407      3399      3411      3399      3400      3401      3399      3400      3402
      3399      3400      3415      3401      3400      3402      3401      3400      3415
      3402      3400      3415      3399      3403      3404      3399      3403      3405
      3399      3403      3406      3404      3403      3405      3404      3403      3406
      3405      3403      3406      3399      3407      3408      3399      3407      3409
      3399      3407      3410      3408      3407      3409      3408      3407      3410
      3409      3407      3410      3399      3411      3412      3399      3411      3413
      3399      3411      3414      3412      3411      3413      3412      3411      3414
      3413      3411      3414      3400      3415      3416      3400      3415      3417
      3400      3415      3421      3416      3415      3417      3416      3415      3421
      3417      3415      3421      3419      3418      3420      3419      3418      3421
      3419      3418      3422      3420      3418      3421      3420      3418      3422
      3421      3418      3422      3415      3421      3418      3418      3422      3423
      3422      3423      3424      3422      3423      3425      3422      3423      3426
      3424      3423      3425      3424      3423      3426      3425      3423      3426
      3423      3426      3427      3423      3426      3428      3423      3426      3434
      3427      3426      3428      3427      3426      3434      3428      3426      3434
      3426      3428      3429      3428      3429      3430      3428      3429      3431
      3430      3429      3431      3429      3431      3432      3429      3431      3433
      3429      3431      3443      3432      3431      3433      3432      3431      3443
      3433      3431      3443      3426      3434      3435      3426      3434      3436
      3426      3434      3437      3435      3434      3436      3435      3434      3437
      3436      3434      3437      3434      3437      3438      3437      3438      3439
      3437      3438      3440      3439      3438      3440      3438      3440      3441
      3438      3440      3442      3438      3440      3490      3441      3440      3442
      3441      3440      3490      3442      3440      3490      3431      3443      3444
      3431      3443      3445      3431      3443      3446      3444      3443      3445
      3444      3443      3446      3445      3443      3446      3443      3446      3447
      3443      3446      3448      3443      3446      3449      3447      3446      3448
      3447      3446      3449      3448      3446      3449      3446      3449      3450
      3446      3449      3451      3446      3449      3452      3450      3449      3451
      3450      3449      3452      3451      3449      3452      3449      3452      3453
      3449      3452      3454      3449      3452      3455      3453      3452      3454
      3453      3452      3455      3454      3452      3455      3452      3455      3456
      3452      3455      3457      3452      3455      3458      3456      3455      3457
      3456      3455      3458      3457      3455      3458      3455      3458      3459
      3455      3458      3460      3455      3458      3461      3459      3458      3460
      3459      3458      3461      3460      3458      3461      3458      3461      3462
      3458      3461      3463      3462      3461      3463      3461      3463      3464
      3461      3463      3465      3464      3463      3465      3463      3465      3466
      3463      3465      3467      3463      3465      3468      3466      3465      3467
      3466      3465      3468      3467      3465      3468      3465      3468      3469
      3465      3468      3470      3465      3468      3471      3469      3468      3470
      3469      3468      3471      3470      3468      3471      3468      3471      3472
      3468      3471      3473      3468      3471      3474      3472      3471      3473
      3472      3471      3474      3473      3471      3474      3471      3474      3475
      3471      3474      3476      3471      3474      3477      3475      3474      3476
      3475      3474      3477      3476      3474      3477      3474      3477      3478
      3474      3477      3479      3474      3477      3480      3478      3477      3479
      3478      3477      3480      3479      3477      3480      3477      3480      3481
      3477      3480      3482      3477      3480      3483      3481      3480      3482
      3481      3480      3483      3482      3480      3483      3480      3483      3484
      3480      3483      3485      3480      3483      3486      3484      3483      3485
      3484      3483      3486      3485      3483      3486      3483      3486      3487
      3483      3486      3488      3483      3486      3489      3487      3486      3488
      3487      3486      3489      3488      3486      3489      3440      3490      3491
      3440      3490      3492      3440      3490      3493      3491      3490      3492
      3491      3490      3493      3492      3490      3493      3490      3493      3494
      3490      3493      3495      3490      3493      3496      3494      3493      3495
      3494      3493      3496      3495      3493      3496      3493      3496      3497
      3493      3496      3498      3493      3496      3499      3497      3496      3498
      3497      3496      3499      3498      3496      3499      3496      3499      3500
      3496      3499      3501      3496      3499      3502      3500      3499      3501
      3500      3499      3502      3501      3499      3502      3499      3502      3503
      3499      3502      3504      3499      3502      3505      3503      3502      3504
      3503      3502      3505      3504      3502      3505      3502      3505      3506
      3502      3505      3507      3502      3505      3508      3506      3505      3507
      3506      3505      3508      3507      3505      3508      3505      3508      3509
      3505      3508      3510      3505      3508      3511      3509      3508      3510
      3509      3508      3511      3510      3508      3511      3508      3511      3512
      3508      3511      3513      3508      3511      3514      3512      3511      3513
      3512      3511      3514      3513      3511      3514      3511      3514      3515
      3511      3514      3516      3511      3514      3517      3515      3514      3516
      3515      3514      3517      3516      3514      3517      3514      3517      3518
      3514      3517      3519      3514      3517      3520      3518      3517      3519
      3518      3517      3520      3519      3517      3520      3517      3520      3521
      3517      3520      3522      3517      3520      3523      3521      3520      3522
      3521      3520      3523      3522      3520      3523      3520      3523      3524
      3520      3523      3525      3520      3523      3526      3524      3523      3525
      3524      3523      3526      3525      3523      3526      3523      3526      3527
      3523      3526      3528      3523      3526      3529      3527      3526      3528
      3527      3526      3529      3528      3526      3529      3526      3529      3530
      3526      3529      3531      3526      3529      3532      3530      3529      3531
      3530      3529      3532      3531      3529      3532      3534      3533      3537
      3534      3533      3541      3534      3533      3545      3537      3533      3541
      3537      3533      3545      3541      3533      3545      3533      3534      3535
      3533      3534      3536      3533      3534      3549      3535      3534      3536
      3535      3534      3549      3536      3534      3549      3533      3537      3538
      3533      3537      3539      3533      3537      3540      3538      3537      3539
      3538      3537      3540      3539      3537      3540      3533      3541      3542
      3533      3541      3543      3533      3541      3544      3542      3541      3543
      3542      3541      3544      3543      3541      3544      3533      3545      3546
      3533      3545      3547      3533      3545      3548      3546      3545      3547
      3546      3545      3548      3547      3545      3548      3534      3549      3550
      3534      3549      3551      3534      3549      3555      3550      3549      3551
      3550      3549      3555      3551      3549      3555      3553      3552      3554
      3553      3552      3555      3553      3552      3556      3554      3552      3555
      3554      3552      3556      3555      3552      3556      3549      3555      3552
      3552      3556      3557      3556      3557      3558      3556      3557      3559
      3556      3557      3560      3558      3557      3559      3558      3557      3560
      3559      3557      3560      3557      3560      3561      3557      3560      3562
      3557      3560      3568      3561      3560      3562      3561      3560      3568
      3562      3560      3568      3560      3562      3563      3562      3563      3564
      3562      3563      3565      3564      3563      3565      3563      3565      3566
      3563      3565      3567      3563      3565      3577      3566      3565      3567
      3566      3565      3577      3567      3565      3577      3560      3568      3569
      3560      3568      3570      3560      3568      3571      3569      3568      3570
      3569      3568      3571      3570      3568      3571      3568      3571      3572
      3571      3572      3573      3571      3572      3574      3573      3572      3574
      3572      3574      3575      3572      3574      3576      3572      3574      3624
      3575      3574      3576      3575      3574      3624      3576      3574      3624
      3565      3577      3578      3565      3577      3579      3565      3577      3580
      3578      3577      3579      3578      3577      3580      3579      3577      3580
      3577      3580      3581      3577      3580      3582      3577      3580      3583
      3581      3580      3582      3581      3580      3583      3582      3580      3583
      3580      3583      3584      3580      3583      3585      3580      3583      3586
      3584      3583      3585      3584      3583      3586      3585      3583      3586
      3583      3586      3587      3583      3586      3588      3583      3586      3589
      3587      3586      3588      3587      3586      3589      3588      3586      3589
      3586      3589      3590      3586      3589      3591      3586      3589      3592
      3590      3589      3591      3590      3589      3592      3591      3589      3592
      3589      3592      3593      3589      3592      3594      3589      3592      3595
      3593      3592      3594      3593      3592      3595      3594      3592      3595
      3592      3595      3596      3592      3595      3597      3596      3595      3597
      3595      3597      3598      3595      3597      3599      3598      3597      3599
      3597      3599      3600      3597      3599      3601      3597      3599      3602
      3600      3599      3601      3600      3599      3602      3601      3599      3602
      3599      3602      3603      3599      3602      3604      3599      3602      3605
      3603      3602      3604      3603      3602      3605      3604      3602      3605
      3602      3605      3606      3602      3605      3607      3602      3605      3608
      3606      3605      3607      3606      3605      3608      3607      3605      3608
      3605      3608      3609      3605      3608      3610      3605      3608      3611
      3609      3608      3610      3609      3608      3611      3610      3608      3611
      3608      3611      3612      3608      3611      3613      3608      3611      3614
      3612      3611      3613      3612      3611      3614      3613      3611      3614
      3611      3614      3615      3611      3614      3616      3611      3614      3617
      3615      3614      3616      3615      3614      3617      3616      3614      3617
      3614      3617      3618      3614      3617      3619      3614      3617      3620
      3618      3617      3619      3618      3617      3620      3619      3617      3620
      3617      3620      3621      3617      3620      3622      3617      3620      3623
      3621      3620      3622      3621      3620      3623      3622      3620      3623
      3574      3624      3625      3574      3624      3626      3574      3624      3627
      3625      3624      3626      3625      3624      3627      3626      3624      3627
      3624      3627      3628      3624      3627      3629      3624      3627      3630
      3628      3627      3629      3628      3627      3630      3629      3627      3630
      3627      3630      3631      3627      3630      3632      3627      3630      3633
      3631      3630      3632      3631      3630      3633      3632      3630      3633
      3630      3633      3634      3630      3633      3635      3630      3633      3636
      3634      3633      3635      3634      3633      3636      3635      3633      3636
      3633      3636      3637      3633      3636      3638      3633      3636      3639
      3637      3636      3638      3637      3636      3639      3638      3636      3639
      3636      3639      3640      3636      3639      3641      3636      3639      3642
      3640      3639      3641      3640      3639      3642      3641      3639      3642
      3639      3642      3643      3639      3642      3644      3639      3642      3645
      3643      3642      3644      3643      3642      3645      3644      3642      3645
      3642      3645      3646      3642      3645      3647      3642      3645      3648
      3646      3645      3647      3646      3645      3648      3647      3645      3648
      3645      3648      3649      3645      3648      3650      3645      3648      3651
      3649      3648      3650      3649      3648      3651      3650      3648      3651
      3648      3651      3652      3648      3651      3653      3648      3651      3654
      3652      3651      3653      3652      3651      3654      3653      3651      3654
      3651      3654      3655      3651      3654      3656      3651      3654      3657
      3655      3654      3656      3655      3654      3657      3656      3654      3657
      3654      3657      3658      3654      3657      3659      3654      3657      3660
      3658      3657      3659      3658      3657      3660      3659      3657      3660
      3657      3660      3661      3657      3660      3662      3657      3660      3663
      3661      3660      3662      3661      3660      3663      3662      3660      3663
      3660      3663      3664      3660      3663      3665      3660      3663      3666
      3664      3663      3665      3664      3663      3666      3665      3663      3666
      3668      3667      3669      3668      3667      3670      3668      3667      3671
      3669      3667      3670      3669      3667      3671      3670      3667      3671
      3667      3671      3672      3667      3671      3673      3667      3671      3676
      3672      3671      3673      3672      3671      3676      3673      3671      3676
      3671      3673      3674      3671      3673      3675      3674      3673      3675
      3671      3676      3677      3671      3676      3678      3671      3676      3682
      3677      3676      3678      3677      3676      3682      3678      3676      3682
      3680      3679      3681      3680      3679      3682      3680      3679      3683
      3681      3679      3682      3681      3679      3683      3682      3679      3683
      3676      3682      3679      3679      3683      3684      3683      3684      3685
      3683      3684      3686      3683      3684      3687      3685      3684      3686
      3685      3684      3687      3686      3684      3687      3684      3687      3688
      3684      3687      3689      3684      3687      3695      3688      3687      3689
      3688      3687      3695      3689      3687      3695      3687      3689      3690
      3689      3690      3691      3689      3690      3692      3691      3690      3692
      3690      3692      3693      3690      3692      3694      3690      3692      3704
      3693      3692      3694      3693      3692      3704      3694      3692      3704
      3687      3695      3696      3687      3695      3697      3687      3695      3698
      3696      3695      3697      3696      3695      3698      3697      3695      3698
      3695      3698      3699      3698      3699      3700      3698      3699      3701
      3700      3699      3701      3699      3701      3702      3699      3701      3703
      3699      3701      3751      3702      3701      3703      3702      3701      3751
      3703      3701      3751      3692      3704      3705      3692      3704      3706
      3692      3704      3707      3705      3704      3706      3705      3704      3707
      3706      3704      3707      3704      3707      3708      3704      3707      3709
      3704      3707      3710      3708      3707      3709      3708      3707      3710
      3709      3707      3710      3707      3710      3711      3707      3710      3712
      3707      3710      3713      3711      3710      3712      3711      3710      3713
      3712      3710      3713      3710      3713      3714      3710      3713      3715
      3710      3713      3716      3714      3713      3715      3714      3713      3716
      3715      3713      3716      3713      3716      3717      3713      3716      3718
      3713      3716      3719      3717      3716      3718      3717      3716      3719
      3718      3716      3719      3716      3719      3720      3716      3719      3721
      3716      3719      3722      3720      3719      3721      3720      3719      3722
      3721      3719      3722      3719      3722      3723      3719      3722      3724
      3723      3722      3724      3722      3724      3725      3722      3724      3726
      3725      3724      3726      3724      3726      3727      3724      3726      3728
      3724      3726      3729      3727      3726      3728      3727      3726      3729
      3728      3726      3729      3726      3729      3730      3726      3729      3731
      3726      3729      3732      3730      3729      3731      3730      3729      3732
      3731      3729      3732      3729      3732      3733      3729      3732      3734
      3729      3732      3735      3733      3732      3734      3733      3732      3735
      3734      3732      3735      3732      3735      3736      3732      3735      3737
      3732      3735      3738      3736      3735      3737      3736      3735      3738
      3737      3735      3738      3735      3738      3739      3735      3738      3740
      3735      3738      3741      3739      3738      3740      3739      3738      3741
      3740      3738      3741      3738      3741      3742      3738      3741      3743
      3738      3741      3744      3742      3741      3743      3742      3741      3744
      3743      3741      3744      3741      3744      3745      3741      3744      3746
      3741      3744      3747      3745      3744      3746      3745      3744      3747
      3746      3744      3747      3744      3747      3748      3744      3747      3749
      3744      3747      3750      3748      3747      3749      3748      3747      3750
      3749      3747      3750      3701      3751      3752      3701      3751      3753
      3701      3751      3754      3752      3751      3753      3752      3751      3754
      3753      3751      3754      3751      3754      3755      3751      3754      3756
      3751      3754      3757      3755      3754      3756      3755      3754      3757
      3756      3754      3757      3754      3757      3758      3754      3757      3759
      3754      3757      3760      3758      3757      3759      3758      3757      3760
      3759      3757      3760      3757      3760      3761      3757      3760      3762
      3757      3760      3763      3761      3760      3762      3761      3760      3763
      3762      3760      3763      3760      3763      3764      3760      3763      3765
      3760      3763      3766      3764      3763      3765      3764      3763      3766
      3765      3763      3766      3763      3766      3767      3763      3766      3768
      3763      3766      3769      3767      3766      3768      3767      3766      3769
      3768      3766      3769      3766      3769      3770      3766      3769      3771
      3766      3769      3772      3770      3769      3771      3770      3769      3772
      3771      3769      3772      3769      3772      3773      3769      3772      3774
      3769      3772      3775      3773      3772      3774      3773      3772      3775
      3774      3772      3775      3772      3775      3776      3772      3775      3777
      3772      3775      3778      3776      3775      3777      3776      3775      3778
      3777      3775      3778      3775      3778      3779      3775      3778      3780
      3775      3778      3781      3779      3778      3780      3779      3778      3781
      3780      3778      3781      3778      3781      3782      3778      3781      3783
      3778      3781      3784      3782      3781      3783      3782      3781      3784
      3783      3781      3784      3781      3784      3785      3781      3784      3786
      3781      3784      3787      3785      3784      3786      3785      3784      3787
      3786      3784      3787      3784      3787      3788      3784      3787      3789
      3784      3787      3790      3788      3787      3789      3788      3787      3790
      3789      3787      3790      3787      3790      3791      3787      3790      3792
      3787      3790      3793      3791      3790      3792      3791      3790      3793
      3792      3790      3793      3795      3794      3798      3795      3794      3802
      3795      3794      3806      3798      3794      3802      3798      3794      3806
      3802      3794      3806      3794      3795      3796      3794      3795      3797
      3794      3795      3810      3796      3795      3797      3796      3795      3810
      3797      3795      3810      3794      3798      3799      3794      3798      3800
      3794      3798      3801      3799      3798      3800      3799      3798      3801
      3800      3798      3801      3794      3802      3803      3794      3802      3804
      3794      3802      3805      3803      3802      3804      3803      3802      3805
      3804      3802      3805      3794      3806      3807      3794      3806      3808
      3794      3806      3809      3807      3806      3808      3807      3806      3809
      3808      3806      3809      3795      3810      3811      3795      3810      3812
      3795      3810      3816      3811      3810      3812      3811      3810      3816
      3812      3810      3816      3814      3813      3815      3814      3813      3816
      3814      3813      3817      3815      3813      3816      3815      3813      3817
      3816      3813      3817      3810      3816      3813      3813      3817      3818
      3817      3818      3819      3817      3818      3820      3817      3818      3821
      3819      3818      3820      3819      3818      3821      3820      3818      3821
      3818      3821      3822      3818      3821      3823      3818      3821      3829
      3822      3821      3823      3822      3821      3829      3823      3821      3829
      3821      3823      3824      3823      3824      3825      3823      3824      3826
      3825      3824      3826      3824      3826      3827      3824      3826      3828
      3824      3826      3838      3827      3826      3828      3827      3826      3838
      3828      3826      3838      3821      3829      3830      3821      3829      3831
      3821      3829      3832      3830      3829      3831      3830      3829      3832
      3831      3829      3832      3829      3832      3833      3832      3833      3834
      3832      3833      3835      3834      3833      3835      3833      3835      3836
      3833      3835      3837      3833      3835      3885      3836      3835      3837
      3836      3835      3885      3837      3835      3885      3826      3838      3839
      3826      3838      3840      3826      3838      3841      3839      3838      3840
      3839      3838      3841      3840      3838      3841      3838      3841      3842
      3838      3841      3843      3838      3841      3844      3842      3841      3843
      3842      3841      3844      3843      3841      3844      3841      3844      3845
      3841      3844      3846      3841      3844      3847      3845      3844      3846
      3845      3844      3847      3846      3844      3847      3844      3847      3848
      3844      3847      3849      3844      3847      3850      3848      3847      3849
      3848      3847      3850      3849      3847      3850      3847      3850      3851
      3847      3850      3852      3847      3850      3853      3851      3850      3852
      3851      3850      3853      3852      3850      3853      3850      3853      3854
      3850      3853      3855      3850      3853      3856      3854      3853      3855
      3854      3853      3856      3855      3853      3856      3853      3856      3857
      3853      3856      3858      3857      3856      3858      3856      3858      3859
      3856      3858      3860      3859      3858      3860      3858      3860      3861
      3858      3860      3862      3858      3860      3863      3861      3860      3862
      3861      3860      3863      3862      3860      3863      3860      3863      3864
      3860      3863      3865      3860      3863      3866      3864      3863      3865
      3864      3863      3866      3865      3863      3866      3863      3866      3867
      3863      3866      3868      3863      3866      3869      3867      3866      3868
      3867      3866      3869      3868      3866      3869      3866      3869      3870
      3866      3869      3871      3866      3869      3872      3870      3869      3871
      3870      3869      3872      3871      3869      3872      3869      3872      3873
      3869      3872      3874      3869      3872      3875      3873      3872      3874
      3873      3872      3875      3874      3872      3875      3872      3875      3876
      3872      3875      3877      3872      3875      3878      3876      3875      3877
      3876      3875      3878      3877      3875      3878      3875      3878      3879
      3875      3878      3880      3875      3878      3881      3879      3878      3880
      3879      3878      3881      3880      3878      3881      3878      3881      3882
      3878      3881      3883      3878      3881      3884      3882      3881      3883
      3882      3881      3884      3883      3881      3884      3835      3885      3886
      3835      3885      3887      3835      3885      3888      3886      3885      3887
      3886      3885      3888      3887      3885      3888      3885      3888      3889
      3885      3888      3890      3885      3888      3891      3889      3888      3890
      3889      3888      3891      3890      3888      3891      3888      3891      3892
      3888      3891      3893      3888      3891      3894      3892      3891      3893
      3892      3891      3894      3893      3891      3894      3891      3894      3895
      3891      3894      3896      3891      3894      3897      3895      3894      3896
      3895      3894      3897      3896      3894      3897      3894      3897      3898
      3894      3897      3899      3894      3897      3900      3898      3897      3899
      3898      3897      3900      3899      3897      3900      3897      3900      3901
      3897      3900      3902      3897      3900      3903      3901      3900      3902
      3901      3900      3903      3902      3900      3903      3900      3903      3904
      3900      3903      3905      3900      3903      3906      3904      3903      3905
      3904      3903      3906      3905      3903      3906      3903      3906      3907
      3903      3906      3908      3903      3906      3909      3907      3906      3908
      3907      3906      3909      3908      3906      3909      3906      3909      3910
      3906      3909      3911      3906      3909      3912      3910      3909      3911
      3910      3909      3912      3911      3909      3912      3909      3912      3913
      3909      3912      3914      3909      3912      3915      3913      3912      3914
      3913      3912      3915      3914      3912      3915      3912      3915      3916
      3912      3915      3917      3912      3915      3918      3916      3915      3917
      3916      3915      3918      3917      3915      3918      3915      3918      3919
      3915      3918      3920      3915      3918      3921      3919      3918      3920
      3919      3918      3921      3920      3918      3921      3918      3921      3922
      3918      3921      3923      3918      3921      3924      3922      3921      3923
      3922      3921      3924      3923      3921      3924      3921      3924      3925
      3921      3924      3926      3921      3924      3927      3925      3924      3926
      3925      3924      3927      3926      3924      3927      3929      3928      3932
      3929      3928      3936      3929      3928      3940      3932      3928      3936
      3932      3928      3940      3936      3928      3940      3928      3929      3930
      3928      3929      3931      3928      3929      3944      3930      3929      3931
      3930      3929      3944      3931      3929      3944      3928      3932      3933
      3928      3932      3934      3928      3932      3935      3933      3932      3934
      3933      3932      3935      3934      3932      3935      3928      3936      3937
      3928      3936      3938      3928      3936      3939      3937      3936      3938
      3937      3936      3939      3938      3936      3939      3928      3940      3941
      3928      3940      3942      3928      3940      3943      3941      3940      3942
      3941      3940      3943      3942      3940      3943      3929      3944      3945
      3929      3944      3946      3929      3944      3950      3945      3944      3946
      3945      3944      3950      3946      3944      3950      3948      3947      3949
      3948      3947      3950      3948      3947      3951      3949      3947      3950
      3949      3947      3951      3950      3947      3951      3944      3950      3947
      3947      3951      3952      3951      3952      3953      3951      3952      3954
      3951      3952      3955      3953      3952      3954      3953      3952      3955
      3954      3952      3955      3952      3955      3956      3952      3955      3957
      3952      3955      3963      3956      3955      3957      3956      3955      3963
      3957      3955      3963      3955      3957      3958      3957      3958      3959
      3957      3958      3960      3959      3958      3960      3958      3960      3961
      3958      3960      3962      3958      3960      3972      3961      3960      3962
      3961      3960      3972      3962      3960      3972      3955      3963      3964
      3955      3963      3965      3955      3963      3966      3964      3963      3965
      3964      3963      3966      3965      3963      3966      3963      3966      3967
      3966      3967      3968      3966      3967      3969      3968      3967      3969
      3967      3969      3970      3967      3969      3971      3967      3969      4019
      3970      3969      3971      3970      3969      4019      3971      3969      4019
      3960      3972      3973      3960      3972      3974      3960      3972      3975
      3973      3972      3974      3973      3972      3975      3974      3972      3975
      3972      3975      3976      3972      3975      3977      3972      3975      3978
      3976      3975      3977      3976      3975      3978      3977      3975      3978
      3975      3978      3979      3975      3978      3980      3975      3978      3981
      3979      3978      3980      3979      3978      3981      3980      3978      3981
      3978      3981      3982      3978      3981      3983      3978      3981      3984
      3982      3981      3983      3982      3981      3984      3983      3981      3984
      3981      3984      3985      3981      3984      3986      3981      3984      3987
      3985      3984      3986      3985      3984      3987      3986      3984      3987
      3984      3987      3988      3984      3987      3989      3984      3987      3990
      3988      3987      3989      3988      3987      3990      3989      3987      3990
      3987      3990      3991      3987      3990      3992      3991      3990      3992
      3990      3992      3993      3990      3992      3994      3993      3992      3994
      3992      3994      3995      3992      3994      3996      3992      3994      3997
      3995      3994      3996      3995      3994      3997      3996      3994      3997
      3994      3997      3998      3994      3997      3999      3994      3997      4000
      3998      3997      3999      3998      3997      4000      3999      3997      4000
      3997      4000      4001      3997      4000      4002      3997      4000      4003
      4001      4000      4002      4001      4000      4003      4002      4000      4003
      4000      4003      4004      4000      4003      4005      4000      4003      4006
      4004      4003      4005      4004      4003      4006      4005      4003      4006
      4003      4006      4007      4003      4006      4008      4003      4006      4009
      4007      4006      4008      4007      4006      4009      4008      4006      4009
      4006      4009      4010      4006      4009      4011      4006      4009      4012
      4010      4009      4011      4010      4009      4012      4011      4009      4012
      4009      4012      4013      4009      4012      4014      4009      4012      4015
      4013      4012      4014      4013      4012      4015      4014      4012      4015
      4012      4015      4016      4012      4015      4017      4012      4015      4018
      4016      4015      4017      4016      4015      4018      4017      4015      4018
      3969      4019      4020      3969      4019      4021      3969      4019      4022
      4020      4019      4021      4020      4019      4022      4021      4019      4022
      4019      4022      4023      4019      4022      4024      4019      4022      4025
      4023      4022      4024      4023      4022      4025      4024      4022      4025
      4022      4025      4026      4022      4025      4027      4022      4025      4028
      4026      4025      4027      4026      4025      4028      4027      4025      4028
      4025      4028      4029      4025      4028      4030      4025      4028      4031
      4029      4028      4030      4029      4028      4031      4030      4028      4031
      4028      4031      4032      4028      4031      4033      4028      4031      4034
      4032      4031      4033      4032      4031      4034      4033      4031      4034
      4031      4034      4035      4031      4034      4036      4031      4034      4037
      4035      4034      4036      4035      4034      4037      4036      4034      4037
      4034      4037      4038      4034      4037      4039      4034      4037      4040
      4038      4037      4039      4038      4037      4040      4039      4037      4040
      4037      4040      4041      4037      4040      4042      4037      4040      4043
      4041      4040      4042      4041      4040      4043      4042      4040      4043
      4040      4043      4044      4040      4043      4045      4040      4043      4046
      4044      4043      4045      4044      4043      4046      4045      4043      4046
      4043      4046      4047      4043      4046      4048      4043      4046      4049
      4047      4046      4048      4047      4046      4049      4048      4046      4049
      4046      4049      4050      4046      4049      4051      4046      4049      4052
      4050      4049      4051      4050      4049      4052      4051      4049      4052
      4049      4052      4053      4049      4052      4054      4049      4052      4055
      4053      4052      4054      4053      4052      4055      4054      4052      4055
      4052      4055      4056      4052      4055      4057      4052      4055      4058
      4056      4055      4057      4056      4055      4058      4057      4055      4058
      4055      4058      4059      4055      4058      4060      4055      4058      4061
      4059      4058      4060      4059      4058      4061      4060      4058      4061
      4063      4062      4064      4063      4062      4065      4063      4062      4066
      4064      4062      4065      4064      4062      4066      4065      4062      4066
      4062      4066      4067      4062      4066      4068      4062      4066      4071
      4067      4066      4068      4067      4066      4071      4068      4066      4071
      4066      4068      4069      4066      4068      4070      4069      4068      4070
      4066      4071      4072      4066      4071      4073      4066      4071      4077
      4072      4071      4073      4072      4071      4077      4073      4071      4077
      4075      4074      4076      4075      4074      4077      4075      4074      4078
      4076      4074      4077      4076      4074      4078      4077      4074      4078
      4071      4077      4074      4074      4078      4079      4078      4079      4080
      4078      4079      4081      4078      4079      4082      4080      4079      4081
      4080      4079      4082      4081      4079      4082      4079      4082      4083
      4079      4082      4084      4079      4082      4090      4083      4082      4084
      4083      4082      4090      4084      4082      4090      4082      4084      4085
      4084      4085      4086      4084      4085      4087      4086      4085      4087
      4085      4087      4088      4085      4087      4089      4085      4087      4099
      4088      4087      4089      4088      4087      4099      4089      4087      4099
      4082      4090      4091      4082      4090      4092      4082      4090      4093
      4091      4090      4092      4091      4090      4093      4092      4090      4093
      4090      4093      4094      4093      4094      4095      4093      4094      4096
      4095      4094      4096      4094      4096      4097      4094      4096      4098
      4094      4096      4146      4097      4096      4098      4097      4096      4146
      4098      4096      4146      4087      4099      4100      4087      4099      4101
      4087      4099      4102      4100      4099      4101      4100      4099      4102
      4101      4099      4102      4099      4102      4103      4099      4102      4104
      4099      4102      4105      4103      4102      4104      4103      4102      4105
      4104      4102      4105      4102      4105      4106      4102      4105      4107
      4102      4105      4108      4106      4105      4107      4106      4105      4108
      4107      4105      4108      4105      4108      4109      4105      4108      4110
      4105      4108      4111      4109      4108      4110      4109      4108      4111
      4110      4108      4111      4108      4111      4112      4108      4111      4113
      4108      4111      4114      4112      4111      4113      4112      4111      4114
      4113      4111      4114      4111      4114      4115      4111      4114      4116
      4111      4114      4117      4115      4114      4116      4115      4114      4117
      4116      4114      4117      4114      4117      4118      4114      4117      4119
      4118      4117      4119      4117      4119      4120      4117      4119      4121
      4120      4119      4121      4119      4121      4122      4119      4121      4123
      4119      4121      4124      4122      4121      4123      4122      4121      4124
      4123      4121      4124      4121      4124      4125      4121      4124      4126
      4121      4124      4127      4125      4124      4126      4125      4124      4127
      4126      4124      4127      4124      4127      4128      4124      4127      4129
      4124      4127      4130      4128      4127      4129      4128      4127      4130
      4129      4127      4130      4127      4130      4131      4127      4130      4132
      4127      4130      4133      4131      4130      4132      4131      4130      4133
      4132      4130      4133      4130      4133      4134      4130      4133      4135
      4130      4133      4136      4134      4133      4135      4134      4133      4136
      4135      4133      4136      4133      4136      4137      4133      4136      4138
      4133      4136      4139      4137      4136      4138      4137      4136      4139
      4138      4136      4139      4136      4139      4140      4136      4139      4141
      4136      4139      4142      4140      4139      4141      4140      4139      4142
      4141      4139      4142      4139      4142      4143      4139      4142      4144
      4139      4142      4145      4143      4142      4144      4143      4142      4145
      4144      4142      4145      4096      4146      4147      4096      4146      4148
      4096      4146      4149      4147      4146      4148      4147      4146      4149
      4148      4146      4149      4146      4149      4150      4146      4149      4151
      4146      4149      4152      4150      4149      4151      4150      4149      4152
      4151      4149      4152      4149      4152      4153      4149      4152      4154
      4149      4152      4155      4153      4152      4154      4153      4152      4155
      4154      4152      4155      4152      4155      4156      4152      4155      4157
      4152      4155      4158      4156      4155      4157      4156      4155      4158
      4157      4155      4158      4155      4158      4159      4155      4158      4160
      4155      4158      4161      4159      4158      4160      4159      4158      4161
      4160      4158      4161      4158      4161      4162      4158      4161      4163
      4158      4161      4164      4162      4161      4163      4162      4161      4164
      4163      4161      4164      4161      4164      4165      4161      4164      4166
      4161      4164      4167      4165      4164      4166      4165      4164      4167
      4166      4164      4167      4164      4167      4168      4164      4167      4169
      4164      4167      4170      4168      4167      4169      4168      4167      4170
      4169      4167      4170      4167      4170      4171      4167      4170      4172
      4167      4170      4173      4171      4170      4172      4171      4170      4173
      4172      4170      4173      4170      4173      4174      4170      4173      4175
      4170      4173      4176      4174      4173      4175      4174      4173      4176
      4175      4173      4176      4173      4176      4177      4173      4176      4178
      4173      4176      4179      4177      4176      4178      4177      4176      4179
      4178      4176      4179      4176      4179      4180      4176      4179      4181
      4176      4179      4182      4180      4179      4181      4180      4179      4182
      4181      4179      4182      4179      4182      4183      4179      4182      4184
      4179      4182      4185      4183      4182      4184      4183      4182      4185
      4184      4182      4185      4182      4185      4186      4182      4185      4187
      4182      4185      4188      4186      4185      4187      4186      4185      4188
      4187      4185      4188      4190      4189      4193      4190      4189      4197
      4190      4189      4201      4193      4189      4197      4193      4189      4201
      4197      4189      4201      4189      4190      4191      4189      4190      4192
      4189      4190      4205      4191      4190      4192      4191      4190      4205
      4192      4190      4205      4189      4193      4194      4189      4193      4195
      4189      4193      4196      4194      4193      4195      4194      4193      4196
      4195      4193      4196      4189      4197      4198      4189      4197      4199
      4189      4197      4200      4198      4197      4199      4198      4197      4200
      4199      4197      4200      4189      4201      4202      4189      4201      4203
      4189      4201      4204      4202      4201      4203      4202      4201      4204
      4203      4201      4204      4190      4205      4206      4190      4205      4207
      4190      4205      4211      4206      4205      4207      4206      4205      4211
      4207      4205      4211      4209      4208      4210      4209      4208      4211
      4209      4208      4212      4210      4208      4211      4210      4208      4212
      4211      4208      4212      4205      4211      4208      4208      4212      4213
      4212      4213      4214      4212      4213      4215      4212      4213      4216
      4214      4213      4215      4214      4213      4216      4215      4213      4216
      4213      4216      4217      4213      4216      4218      4213      4216      4224
      4217      4216      4218      4217      4216      4224      4218      4216      4224
      4216      4218      4219      4218      4219      4220      4218      4219      4221
      4220      4219      4221      4219      4221      4222      4219      4221      4223
      4219      4221      4233      4222      4221      4223      4222      4221      4233
      4223      4221      4233      4216      4224      4225      4216      4224      4226
      4216      4224      4227      4225      4224      4226      4225      4224      4227
      4226      4224      4227      4224      4227      4228      4227      4228      4229
      4227      4228      4230      4229      4228      4230      4228      4230      4231
      4228      4230      4232      4228      4230      4280      4231      4230      4232
      4231      4230      4280      4232      4230      4280      4221      4233      4234
      4221      4233      4235      4221      4233      4236      4234      4233      4235
      4234      4233      4236      4235      4233      4236      4233      4236      4237
      4233      4236      4238      4233      4236      4239      4237      4236      4238
      4237      4236      4239      4238      4236      4239      4236      4239      4240
      4236      4239      4241      4236      4239      4242      4240      4239      4241
      4240      4239      4242      4241      4239      4242      4239      4242      4243
      4239      4242      4244      4239      4242      4245      4243      4242      4244
      4243      4242      4245      4244      4242      4245      4242      4245      4246
      4242      4245      4247      4242      4245      4248      4246      4245      4247
      4246      4245      4248      4247      4245      4248      4245      4248      4249
      4245      4248      4250      4245      4248      4251      4249      4248      4250
      4249      4248      4251      4250      4248      4251      4248      4251      4252
      4248      4251      4253      4252      4251      4253      4251      4253      4254
      4251      4253      4255      4254      4253      4255      4253      4255      4256
      4253      4255      4257      4253      4255      4258      4256      4255      4257
      4256      4255      4258      4257      4255      4258      4255      4258      4259
      4255      4258      4260      4255      4258      4261      4259      4258      4260
      4259      4258      4261      4260      4258      4261      4258      4261      4262
      4258      4261      4263      4258      4261      4264      4262      4261      4263
      4262      4261      4264      4263      4261      4264      4261      4264      4265
      4261      4264      4266      4261      4264      4267      4265      4264      4266
      4265      4264      4267      4266      4264      4267      4264      4267      4268
      4264      4267      4269      4264      4267      4270      4268      4267      4269
      4268      4267      4270      4269      4267      4270      4267      4270      4271
      4267      4270      4272      4267      4270      4273      4271      4270      4272
      4271      4270      4273      4272      4270      4273      4270      4273      4274
      4270      4273      4275      4270      4273      4276      4274      4273      4275
      4274      4273      4276      4275      4273      4276      4273      4276      4277
      4273      4276      4278      4273      4276      4279      4277      4276      4278
      4277      4276      4279      4278      4276      4279      4230      4280      4281
      4230      4280      4282      4230      4280      4283      4281      4280      4282
      4281      4280      4283      4282      4280      4283      4280      4283      4284
      4280      4283      4285      4280      4283      4286      4284      4283      4285
      4284      4283      4286      4285      4283      4286      4283      4286      4287
      4283      4286      4288      4283      4286      4289      4287      4286      4288
      4287      4286      4289      4288      4286      4289      4286      4289      4290
      4286      4289      4291      4286      4289      4292      4290      4289      4291
      4290      4289      4292      4291      4289      4292      4289      4292      4293
      4289      4292      4294      4289      4292      4295      4293      4292      4294
      4293      4292      4295      4294      4292      4295      4292      4295      4296
      4292      4295      4297      4292      4295      4298      4296      4295      4297
      4296      4295      4298      4297      4295      4298      4295      4298      4299
      4295      4298      4300      4295      4298      4301      4299      4298      4300
      4299      4298      4301      4300      4298      4301      4298      4301      4302
      4298      4301      4303      4298      4301      4304      4302      4301      4303
      4302      4301      4304      4303      4301      4304      4301      4304      4305
      4301      4304      4306      4301      4304      4307      4305      4304      4306
      4305      4304      4307      4306      4304      4307      4304      4307      4308
      4304      4307      4309      4304      4307      4310      4308      4307      4309
      4308      4307      4310      4309      4307      4310      4307      4310      4311
      4307      4310      4312      4307      4310      4313      4311      4310      4312
      4311      4310      4313      4312      4310      4313      4310      4313      4314
      4310      4313      4315      4310      4313      4316      4314      4313      4315
      4314      4313      4316      4315      4313      4316      4313      4316      4317
      4313      4316      4318      4313      4316      4319      4317      4316      4318
      4317      4316      4319      4318      4316      4319      4316      4319      4320
      4316      4319      4321      4316      4319      4322      4320      4319      4321
      4320      4319      4322      4321      4319      4322      4324      4323      4327
      4324      4323      4331      4324      4323      4335      4327      4323      4331
      4327      4323      4335      4331      4323      4335      4323      4324      4325
      4323      4324      4326      4323      4324      4339      4325      4324      4326
      4325      4324      4339      4326      4324      4339      4323      4327      4328
      4323      4327      4329      4323      4327      4330      4328      4327      4329
      4328      4327      4330      4329      4327      4330      4323      4331      4332
      4323      4331      4333      4323      4331      4334      4332      4331      4333
      4332      4331      4334      4333      4331      4334      4323      4335      4336
      4323      4335      4337      4323      4335      4338      4336      4335      4337
      4336      4335      4338      4337      4335      4338      4324      4339      4340
      4324      4339      4341      4324      4339      4345      4340      4339      4341
      4340      4339      4345      4341      4339      4345      4343      4342      4344
      4343      4342      4345      4343      4342      4346      4344      4342      4345
      4344      4342      4346      4345      4342      4346      4339      4345      4342
      4342      4346      4347      4346      4347      4348      4346      4347      4349
      4346      4347      4350      4348      4347      4349      4348      4347      4350
      4349      4347      4350      4347      4350      4351      4347      4350      4352
      4347      4350      4358      4351      4350      4352      4351      4350      4358
      4352      4350      4358      4350      4352      4353      4352      4353      4354
      4352      4353      4355      4354      4353      4355      4353      4355      4356
      4353      4355      4357      4353      4355      4367      4356      4355      4357
      4356      4355      4367      4357      4355      4367      4350      4358      4359
      4350      4358      4360      4350      4358      4361      4359      4358      4360
      4359      4358      4361      4360      4358      4361      4358      4361      4362
      4361      4362      4363      4361      4362      4364      4363      4362      4364
      4362      4364      4365      4362      4364      4366      4362      4364      4414
      4365      4364      4366      4365      4364      4414      4366      4364      4414
      4355      4367      4368      4355      4367      4369      4355      4367      4370
      4368      4367      4369      4368      4367      4370      4369      4367      4370
      4367      4370      4371      4367      4370      4372      4367      4370      4373
      4371      4370      4372      4371      4370      4373      4372      4370      4373
      4370      4373      4374      4370      4373      4375      4370      4373      4376
      4374      4373      4375      4374      4373      4376      4375      4373      4376
      4373      4376      4377      4373      4376      4378      4373      4376      4379
      4377      4376      4378      4377      4376      4379      4378      4376      4379
      4376      4379      4380      4376      4379      4381      4376      4379      4382
      4380      4379      4381      4380      4379      4382      4381      4379      4382
      4379      4382      4383      4379      4382      4384      4379      4382      4385
      4383      4382      4384      4383      4382      4385      4384      4382      4385
      4382      4385      4386      4382      4385      4387      4386      4385      4387
      4385      4387      4388      4385      4387      4389      4388      4387      4389
      4387      4389      4390      4387      4389      4391      4387      4389      4392
      4390      4389      4391      4390      4389      4392      4391      4389      4392
      4389      4392      4393      4389      4392      4394      4389      4392      4395
      4393      4392      4394      4393      4392      4395      4394      4392      4395
      4392      4395      4396      4392      4395      4397      4392      4395      4398
      4396      4395      4397      4396      4395      4398      4397      4395      4398
      4395      4398      4399      4395      4398      4400      4395      4398      4401
      4399      4398      4400      4399      4398      4401      4400      4398      4401
      4398      4401      4402      4398      4401      4403      4398      4401      4404
      4402      4401      4403      4402      4401      4404      4403      4401      4404
      4401      4404      4405      4401      4404      4406      4401      4404      4407
      4405      4404      4406      4405      4404      4407      4406      4404      4407
      4404      4407      4408      4404      4407      4409      4404      4407      4410
      4408      4407      4409      4408      4407      4410      4409      4407      4410
      4407      4410      4411      4407      4410      4412      4407      4410      4413
      4411      4410      4412      4411      4410      4413      4412      4410      4413
      4364      4414      4415      4364      4414      4416      4364      4414      4417
      4415      4414      4416      4415      4414      4417      4416      4414      4417
      4414      4417      4418      4414      4417      4419      4414      4417      4420
      4418      4417      4419      4418      4417      4420      4419      4417      4420
      4417      4420      4421      4417      4420      4422      4417      4420      4423
      4421      4420      4422      4421      4420      4423      4422      4420      4423
      4420      4423      4424      4420      4423      4425      4420      4423      4426
      4424      4423      4425      4424      4423      4426      4425      4423      4426
      4423      4426      4427      4423      4426      4428      4423      4426      4429
      4427      4426      4428      4427      4426      4429      4428      4426      4429
      4426      4429      4430      4426      4429      4431      4426      4429      4432
      4430      4429      4431      4430      4429      4432      4431      4429      4432
      4429      4432      4433      4429      4432      4434      4429      4432      4435
      4433      4432      4434      4433      4432      4435      4434      4432      4435
      4432      4435      4436      4432      4435      4437      4432      4435      4438
      4436      4435      4437      4436      4435      4438      4437      4435      4438
      4435      4438      4439      4435      4438      4440      4435      4438      4441
      4439      4438      4440      4439      4438      4441      4440      4438      4441
      4438      4441      4442      4438      4441      4443      4438      4441      4444
      4442      4441      4443      4442      4441      4444      4443      4441      4444
      4441      4444      4445      4441      4444      4446      4441      4444      4447
      4445      4444      4446      4445      4444      4447      4446      4444      4447
      4444      4447      4448      4444      4447      4449      4444      4447      4450
      4448      4447      4449      4448      4447      4450      4449      4447      4450
      4447      4450      4451      4447      4450      4452      4447      4450      4453
      4451      4450      4452      4451      4450      4453      4452      4450      4453
      4450      4453      4454      4450      4453      4455      4450      4453      4456
      4454      4453      4455      4454      4453      4456      4455      4453      4456
      4458      4457      4461      4458      4457      4465      4458      4457      4469
      4461      4457      4465      4461      4457      4469      4465      4457      4469
      4457      4458      4459      4457      4458      4460      4457      4458      4473
      4459      4458      4460      4459      4458      4473      4460      4458      4473
      4457      4461      4462      4457      4461      4463      4457      4461      4464
      4462      4461      4463      4462      4461      4464      4463      4461      4464
      4457      4465      4466      4457      4465      4467      4457      4465      4468
      4466      4465      4467      4466      4465      4468      4467      4465      4468
      4457      4469      4470      4457      4469      4471      4457      4469      4472
      4470      4469      4471      4470      4469      4472      4471      4469      4472
      4458      4473      4474      4458      4473      4475      4458      4473      4479
      4474      4473      4475      4474      4473      4479      4475      4473      4479
      4477      4476      4478      4477      4476      4479      4477      4476      4480
      4478      4476      4479      4478      4476      4480      4479      4476      4480
      4473      4479      4476      4476      4480      4481      4480      4481      4482
      4480      4481      4483      4480      4481      4484      4482      4481      4483
      4482      4481      4484      4483      4481      4484      4481      4484      4485
      4481      4484      4486      4481      4484      4492      4485      4484      4486
      4485      4484      4492      4486      4484      4492      4484      4486      4487
      4486      4487      4488      4486      4487      4489      4488      4487      4489
      4487      4489      4490      4487      4489      4491      4487      4489      4501
      4490      4489      4491      4490      4489      4501      4491      4489      4501
      4484      4492      4493      4484      4492      4494      4484      4492      4495
      4493      4492      4494      4493      4492      4495      4494      4492      4495
      4492      4495      4496      4495      4496      4497      4495      4496      4498
      4497      4496      4498      4496      4498      4499      4496      4498      4500
      4496      4498      4548      4499      4498      4500      4499      4498      4548
      4500      4498      4548      4489      4501      4502      4489      4501      4503
      4489      4501      4504      4502      4501      4503      4502      4501      4504
      4503      4501      4504      4501      4504      4505      4501      4504      4506
      4501      4504      4507      4505      4504      4506      4505      4504      4507
      4506      4504      4507      4504      4507      4508      4504      4507      4509
      4504      4507      4510      4508      4507      4509      4508      4507      4510
      4509      4507      4510      4507      4510      4511      4507      4510      4512
      4507      4510      4513      4511      4510      4512      4511      4510      4513
      4512      4510      4513      4510      4513      4514      4510      4513      4515
      4510      4513      4516      4514      4513      4515      4514      4513      4516
      4515      4513      4516      4513      4516      4517      4513      4516      4518
      4513      4516      4519      4517      4516      4518      4517      4516      4519
      4518      4516      4519      4516      4519      4520      4516      4519      4521
      4520      4519      4521      4519      4521      4522      4519      4521      4523
      4522      4521      4523      4521      4523      4524      4521      4523      4525
      4521      4523      4526      4524      4523      4525      4524      4523      4526
      4525      4523      4526      4523      4526      4527      4523      4526      4528
      4523      4526      4529      4527      4526      4528      4527      4526      4529
      4528      4526      4529      4526      4529      4530      4526      4529      4531
      4526      4529      4532      4530      4529      4531      4530      4529      4532
      4531      4529      4532      4529      4532      4533      4529      4532      4534
      4529      4532      4535      4533      4532      4534      4533      4532      4535
      4534      4532      4535      4532      4535      4536      4532      4535      4537
      4532      4535      4538      4536      4535      4537      4536      4535      4538
      4537      4535      4538      4535      4538      4539      4535      4538      4540
      4535      4538      4541      4539      4538      4540      4539      4538      4541
      4540      4538      4541      4538      4541      4542      4538      4541      4543
      4538      4541      4544      4542      4541      4543      4542      4541      4544
      4543      4541      4544      4541      4544      4545      4541      4544      4546
      4541      4544      4547      4545      4544      4546      4545      4544      4547
      4546      4544      4547      4498      4548      4549      4498      4548      4550
      4498      4548      4551      4549      4548      4550      4549      4548      4551
      4550      4548      4551      4548      4551      4552      4548      4551      4553
      4548      4551      4554      4552      4551      4553      4552      4551      4554
      4553      4551      4554      4551      4554      4555      4551      4554      4556
      4551      4554      4557      4555      4554      4556      4555      4554      4557
      4556      4554      4557      4554      4557      4558      4554      4557      4559
      4554      4557      4560      4558      4557      4559      4558      4557      4560
      4559      4557      4560      4557      4560      4561      4557      4560      4562
      4557      4560      4563      4561      4560      4562      4561      4560      4563
      4562      4560      4563      4560      4563      4564      4560      4563      4565
      4560      4563      4566      4564      4563      4565      4564      4563      4566
      4565      4563      4566      4563      4566      4567      4563      4566      4568
      4563      4566      4569      4567      4566      4568      4567      4566      4569
      4568      4566      4569      4566      4569      4570      4566      4569      4571
      4566      4569      4572      4570      4569      4571      4570      4569      4572
      4571      4569      4572      4569      4572      4573      4569      4572      4574
      4569      4572      4575      4573      4572      4574      4573      4572      4575
      4574      4572      4575      4572      4575      4576      4572      4575      4577
      4572      4575      4578      4576      4575      4577      4576      4575      4578
      4577      4575      4578      4575      4578      4579      4575      4578      4580
      4575      4578      4581      4579      4578      4580      4579      4578      4581
      4580      4578      4581      4578      4581      4582      4578      4581      4583
      4578      4581      4584      4582      4581      4583      4582      4581      4584
      4583      4581      4584      4581      4584      4585      4581      4584      4586
      4581      4584      4587      4585      4584      4586      4585      4584      4587
      4586      4584      4587      4584      4587      4588      4584      4587      4589
      4584      4587      4590      4588      4587      4589      4588      4587      4590
      4589      4587      4590      4592      4591      4595      4592      4591      4599
      4592      4591      4603      4595      4591      4599      4595      4591      4603
      4599      4591      4603      4591      4592      4593      4591      4592      4594
      4591      4592      4607      4593      4592      4594      4593      4592      4607
      4594      4592      4607      4591      4595      4596      4591      4595      4597
      4591      4595      4598      4596      4595      4597      4596      4595      4598
      4597      4595      4598      4591      4599      4600      4591      4599      4601
      4591      4599      4602      4600      4599      4601      4600      4599      4602
      4601      4599      4602      4591      4603      4604      4591      4603      4605
      4591      4603      4606      4604      4603      4605      4604      4603      4606
      4605      4603      4606      4592      4607      4608      4592      4607      4609
      4592      4607      4613      4608      4607      4609      4608      4607      4613
      4609      4607      4613      4611      4610      4612      4611      4610      4613
      4611      4610      4614      4612      4610      4613      4612      4610      4614
      4613      4610      4614      4607      4613      4610      4610      4614      4615
      4614      4615      4616      4614      4615      4617      4614      4615      4618
      4616      4615      4617      4616      4615      4618      4617      4615      4618
      4615      4618      4619      4615      4618      4620      4615      4618      4626
      4619      4618      4620      4619      4618      4626      4620      4618      4626
      4618      4620      4621      4620      4621      4622      4620      4621      4623
      4622      4621      4623      4621      4623      4624      4621      4623      4625
      4621      4623      4635      4624      4623      4625      4624      4623      4635
      4625      4623      4635      4618      4626      4627      4618      4626      4628
      4618      4626      4629      4627      4626      4628      4627      4626      4629
      4628      4626      4629      4626      4629      4630      4629      4630      4631
      4629      4630      4632      4631      4630      4632      4630      4632      4633
      4630      4632      4634      4630      4632      4682      4633      4632      4634
      4633      4632      4682      4634      4632      4682      4623      4635      4636
      4623      4635      4637      4623      4635      4638      4636      4635      4637
      4636      4635      4638      4637      4635      4638      4635      4638      4639
      4635      4638      4640      4635      4638      4641      4639      4638      4640
      4639      4638      4641      4640      4638      4641      4638      4641      4642
      4638      4641      4643      4638      4641      4644      4642      4641      4643
      4642      4641      4644      4643      4641      4644      4641      4644      4645
      4641      4644      4646      4641      4644      4647      4645      4644      4646
      4645      4644      4647      4646      4644      4647      4644      4647      4648
      4644      4647      4649      4644      4647      4650      4648      4647      4649
      4648      4647      4650      4649      4647      4650      4647      4650      4651
      4647      4650      4652      4647      4650      4653      4651      4650      4652
      4651      4650      4653      4652      4650      4653      4650      4653      4654
      4650      4653      4655      4654      4653      4655      4653      4655      4656
      4653      4655      4657      4656      4655      4657      4655      4657      4658
      4655      4657      4659      4655      4657      4660      4658      4657      4659
      4658      4657      4660      4659      4657      4660      4657      4660      4661
      4657      4660      4662      4657      4660      4663      4661      4660      4662
      4661      4660      4663      4662      4660      4663      4660      4663      4664
      4660      4663      4665      4660      4663      4666      4664      4663      4665
      4664      4663      4666      4665      4663      4666      4663      4666      4667
      4663      4666      4668      4663      4666      4669      4667      4666      4668
      4667      4666      4669      4668      4666      4669      4666      4669      4670
      4666      4669      4671      4666      4669      4672      4670      4669      4671
      4670      4669      4672      4671      4669      4672      4669      4672      4673
      4669      4672      4674      4669      4672      4675      4673      4672      4674
      4673      4672      4675      4674      4672      4675      4672      4675      4676
      4672      4675      4677      4672      4675      4678      4676      4675      4677
      4676      4675      4678      4677      4675      4678      4675      4678      4679
      4675      4678      4680      4675      4678      4681      4679      4678      4680
      4679      4678      4681      4680      4678      4681      4632      4682      4683
      4632      4682      4684      4632      4682      4685      4683      4682      4684
      4683      4682      4685      4684      4682      4685      4682      4685      4686
      4682      4685      4687      4682      4685      4688      4686      4685      4687
      4686      4685      4688      4687      4685      4688      4685      4688      4689
      4685      4688      4690      4685      4688      4691      4689      4688      4690
      4689      4688      4691      4690      4688      4691      4688      4691      4692
      4688      4691      4693      4688      4691      4694      4692      4691      4693
      4692      4691      4694      4693      4691      4694      4691      4694      4695
      4691      4694      4696      4691      4694      4697      4695      4694      4696
      4695      4694      4697      4696      4694      4697      4694      4697      4698
      4694      4697      4699      4694      4697      4700      4698      4697      4699
      4698      4697      4700      4699      4697      4700      4697      4700      4701
      4697      4700      4702      4697      4700      4703      4701      4700      4702
      4701      4700      4703      4702      4700      4703      4700      4703      4704
      4700      4703      4705      4700      4703      4706      4704      4703      4705
      4704      4703      4706      4705      4703      4706      4703      4706      4707
      4703      4706      4708      4703      4706      4709      4707      4706      4708
      4707      4706      4709      4708      4706      4709      4706      4709      4710
      4706      4709      4711      4706      4709      4712      4710      4709      4711
      4710      4709      4712      4711      4709      4712      4709      4712      4713
      4709      4712      4714      4709      4712      4715      4713      4712      4714
      4713      4712      4715      4714      4712      4715      4712      4715      4716
      4712      4715      4717      4712      4715      4718      4716      4715      4717
      4716      4715      4718      4717      4715      4718      4715      4718      4719
      4715      4718      4720      4715      4718      4721      4719      4718      4720
      4719      4718      4721      4720      4718      4721      4718      4721      4722
      4718      4721      4723      4718      4721      4724      4722      4721      4723
      4722      4721      4724      4723      4721      4724      4726      4725      4729
      4726      4725      4733      4726      4725      4737      4729      4725      4733
      4729      4725      4737      4733      4725      4737      4725      4726      4727
      4725      4726      4728      4725      4726      4741      4727      4726      4728
      4727      4726      4741      4728      4726      4741      4725      4729      4730
      4725      4729      4731      4725      4729      4732      4730      4729      4731
      4730      4729      4732      4731      4729      4732      4725      4733      4734
      4725      4733      4735      4725      4733      4736      4734      4733      4735
      4734      4733      4736      4735      4733      4736      4725      4737      4738
      4725      4737      4739      4725      4737      4740      4738      4737      4739
      4738      4737      4740      4739      4737      4740      4726      4741      4742
      4726      4741      4743      4726      4741      4747      4742      4741      4743
      4742      4741      4747      4743      4741      4747      4745      4744      4746
      4745      4744      4747      4745      4744      4748      4746      4744      4747
      4746      4744      4748      4747      4744      4748      4741      4747      4744
      4744      4748      4749      4748      4749      4750      4748      4749      4751
      4748      4749      4752      4750      4749      4751      4750      4749      4752
      4751      4749      4752      4749      4752      4753      4749      4752      4754
      4749      4752      4760      4753      4752      4754      4753      4752      4760
      4754      4752      4760      4752      4754      4755      4754      4755      4756
      4754      4755      4757      4756      4755      4757      4755      4757      4758
      4755      4757      4759      4755      4757      4769      4758      4757      4759
      4758      4757      4769      4759      4757      4769      4752      4760      4761
      4752      4760      4762      4752      4760      4763      4761      4760      4762
      4761      4760      4763      4762      4760      4763      4760      4763      4764
      4763      4764      4765      4763      4764      4766      4765      4764      4766
      4764      4766      4767      4764      4766      4768      4764      4766      4816
      4767      4766      4768      4767      4766      4816      4768      4766      4816
      4757      4769      4770      4757      4769      4771      4757      4769      4772
      4770      4769      4771      4770      4769      4772      4771      4769      4772
      4769      4772      4773      4769      4772      4774      4769      4772      4775
      4773      4772      4774      4773      4772      4775      4774      4772      4775
      4772      4775      4776      4772      4775      4777      4772      4775      4778
      4776      4775      4777      4776      4775      4778      4777      4775      4778
      4775      4778      4779      4775      4778      4780      4775      4778      4781
      4779      4778      4780      4779      4778      4781      4780      4778      4781
      4778      4781      4782      4778      4781      4783      4778      4781      4784
      4782      4781      4783      4782      4781      4784      4783      4781      4784
      4781      4784      4785      4781      4784      4786      4781      4784      4787
      4785      4784      4786      4785      4784      4787      4786      4784      4787
      4784      4787      4788      4784      4787      4789      4788      4787      4789
      4787      4789      4790      4787      4789      4791      4790      4789      4791
      4789      4791      4792      4789      4791      4793      4789      4791      4794
      4792      4791      4793      4792      4791      4794      4793      4791      4794
      4791      4794      4795      4791      4794      4796      4791      4794      4797
      4795      4794      4796      4795      4794      4797      4796      4794      4797
      4794      4797      4798      4794      4797      4799      4794      4797      4800
      4798      4797      4799      4798      4797      4800      4799      4797      4800
      4797      4800      4801      4797      4800      4802      4797      4800      4803
      4801      4800      4802      4801      4800      4803      4802      4800      4803
      4800      4803      4804      4800      4803      4805      4800      4803      4806
      4804      4803      4805      4804      4803      4806      4805      4803      4806
      4803      4806      4807      4803      4806      4808      4803      4806      4809
      4807      4806      4808      4807      4806      4809      4808      4806      4809
      4806      4809      4810      4806      4809      4811      4806      4809      4812
      4810      4809      4811      4810      4809      4812      4811      4809      4812
      4809      4812      4813      4809      4812      4814      4809      4812      4815
      4813      4812      4814      4813      4812      4815      4814      4812      4815
      4766      4816      4817      4766      4816      4818      4766      4816      4819
      4817      4816      4818      4817      4816      4819      4818      4816      4819
      4816      4819      4820      4816      4819      4821      4816      4819      4822
      4820      4819      4821      4820      4819      4822      4821      4819      4822
      4819      4822      4823      4819      4822      4824      4819      4822      4825
      4823      4822      4824      4823      4822      4825      4824      4822      4825
      4822      4825      4826      4822      4825      4827      4822      4825      4828
      4826      4825      4827      4826      4825      4828      4827      4825      4828
      4825      4828      4829      4825      4828      4830      4825      4828      4831
      4829      4828      4830      4829      4828      4831      4830      4828      4831
      4828      4831      4832      4828      4831      4833      4828      4831      4834
      4832      4831      4833      4832      4831      4834      4833      4831      4834
      4831      4834      4835      4831      4834      4836      4831      4834      4837
      4835      4834      4836      4835      4834      4837      4836      4834      4837
      4834      4837      4838      4834      4837      4839      4834      4837      4840
      4838      4837      4839      4838      4837      4840      4839      4837      4840
      4837      4840      4841      4837      4840      4842      4837      4840      4843
      4841      4840      4842      4841      4840      4843      4842      4840      4843
      4840      4843      4844      4840      4843      4845      4840      4843      4846
      4844      4843      4845      4844      4843      4846      4845      4843      4846
      4843      4846      4847      4843      4846      4848      4843      4846      4849
      4847      4846      4848      4847      4846      4849      4848      4846      4849
      4846      4849      4850      4846      4849      4851      4846      4849      4852
      4850      4849      4851      4850      4849      4852      4851      4849      4852
      4849      4852      4853      4849      4852      4854      4849      4852      4855
      4853      4852      4854      4853      4852      4855      4854      4852      4855
      4852      4855      4856      4852      4855      4857      4852      4855      4858
      4856      4855      4857      4856      4855      4858      4857      4855      4858
      4860      4859      4863      4860      4859      4867      4860      4859      4871
      4863      4859      4867      4863      4859      4871      4867      4859      4871
      4859      4860      4861      4859      4860      4862      4859      4860      4875
      4861      4860      4862      4861      4860      4875      4862      4860      4875
      4859      4863      4864      4859      4863      4865      4859      4863      4866
      4864      4863      4865      4864      4863      4866      4865      4863      4866
      4859      4867      4868      4859      4867      4869      4859      4867      4870
      4868      4867      4869      4868      4867      4870      4869      4867      4870
      4859      4871      4872      4859      4871      4873      4859      4871      4874
      4872      4871      4873      4872      4871      4874      4873      4871      4874
      4860      4875      4876      4860      4875      4877      4860      4875      4881
      4876      4875      4877      4876      4875      4881      4877      4875      4881
      4879      4878      4880      4879      4878      4881      4879      4878      4882
      4880      4878      4881      4880      4878      4882      4881      4878      4882
      4875      4881      4878      4878      4882      4883      4882      4883      4884
      4882      4883      4885      4882      4883      4886      4884      4883      4885
      4884      4883      4886      4885      4883      4886      4883      4886      4887
      4883      4886      4888      4883      4886      4894      4887      4886      4888
      4887      4886      4894      4888      4886      4894      4886      4888      4889
      4888      4889      4890      4888      4889      4891      4890      4889      4891
      4889      4891      4892      4889      4891      4893      4889      4891      4903
      4892      4891      4893      4892      4891      4903      4893      4891      4903
      4886      4894      4895      4886      4894      4896      4886      4894      4897
      4895      4894      4896      4895      4894      4897      4896      4894      4897
      4894      4897      4898      4897      4898      4899      4897      4898      4900
      4899      4898      4900      4898      4900      4901      4898      4900      4902
      4898      4900      4950      4901      4900      4902      4901      4900      4950
      4902      4900      4950      4891      4903      4904      4891      4903      4905
      4891      4903      4906      4904      4903      4905      4904      4903      4906
      4905      4903      4906      4903      4906      4907      4903      4906      4908
      4903      4906      4909      4907      4906      4908      4907      4906      4909
      4908      4906      4909      4906      4909      4910      4906      4909      4911
      4906      4909      4912      4910      4909      4911      4910      4909      4912
      4911      4909      4912      4909      4912      4913      4909      4912      4914
      4909      4912      4915      4913      4912      4914      4913      4912      4915
      4914      4912      4915      4912      4915      4916      4912      4915      4917
      4912      4915      4918      4916      4915      4917      4916      4915      4918
      4917      4915      4918      4915      4918      4919      4915      4918      4920
      4915      4918      4921      4919      4918      4920      4919      4918      4921
      4920      4918      4921      4918      4921      4922      4918      4921      4923
      4922      4921      4923      4921      4923      4924      4921      4923      4925
      4924      4923      4925      4923      4925      4926      4923      4925      4927
      4923      4925      4928      4926      4925      4927      4926      4925      4928
      4927      4925      4928      4925      4928      4929      4925      4928      4930
      4925      4928      4931      4929      4928      4930      4929      4928      4931
      4930      4928      4931      4928      4931      4932      4928      4931      4933
      4928      4931      4934      4932      4931      4933      4932      4931      4934
      4933      4931      4934      4931      4934      4935      4931      4934      4936
      4931      4934      4937      4935      4934      4936      4935      4934      4937
      4936      4934      4937      4934      4937      4938      4934      4937      4939
      4934      4937      4940      4938      4937      4939      4938      4937      4940
      4939      4937      4940      4937      4940      4941      4937      4940      4942
      4937      4940      4943      4941      4940      4942      4941      4940      4943
      4942      4940      4943      4940      4943      4944      4940      4943      4945
      4940      4943      4946      4944      4943      4945      4944      4943      4946
      4945      4943      4946      4943      4946      4947      4943      4946      4948
      4943      4946      4949      4947      4946      4948      4947      4946      4949
      4948      4946      4949      4900      4950      4951      4900      4950      4952
      4900      4950      4953      4951      4950      4952      4951      4950      4953
      4952      4950      4953      4950      4953      4954      4950      4953      4955
      4950      4953      4956      4954      4953      4955      4954      4953      4956
      4955      4953      4956      4953      4956      4957      4953      4956      4958
      4953      4956      4959      4957      4956      4958      4957      4956      4959
      4958      4956      4959      4956      4959      4960      4956      4959      4961
      4956      4959      4962      4960      4959      4961      4960      4959      4962
      4961      4959      4962      4959      4962      4963      4959      4962      4964
      4959      4962      4965      4963      4962      4964      4963      4962      4965
      4964      4962      4965      4962      4965      4966      4962      4965      4967
      4962      4965      4968      4966      4965      4967      4966      4965      4968
      4967      4965      4968      4965      4968      4969      4965      4968      4970
      4965      4968      4971      4969      4968      4970      4969      4968      4971
      4970      4968      4971      4968      4971      4972      4968      4971      4973
      4968      4971      4974      4972      4971      4973      4972      4971      4974
      4973      4971      4974      4971      4974      4975      4971      4974      4976
      4971      4974      4977      4975      4974      4976      4975      4974      4977
      4976      4974      4977      4974      4977      4978      4974      4977      4979
      4974      4977      4980      4978      4977      4979      4978      4977      4980
      4979      4977      4980      4977      4980      4981      4977      4980      4982
      4977      4980      4983      4981      4980      4982      4981      4980      4983
      4982      4980      4983      4980      4983      4984      4980      4983      4985
      4980      4983      4986      4984      4983      4985      4984      4983      4986
      4985      4983      4986      4983      4986      4987      4983      4986      4988
      4983      4986      4989      4987      4986      4988      4987      4986      4989
      4988      4986      4989      4986      4989      4990      4986      4989      4991
      4986      4989      4992      4990      4989      4991      4990      4989      4992
      4991      4989      4992      4994      4993      4997      4994      4993      5001
      4994      4993      5005      4997      4993      5001      4997      4993      5005
      5001      4993      5005      4993      4994      4995      4993      4994      4996
      4993      4994      5009      4995      4994      4996      4995      4994      5009
      4996      4994      5009      4993      4997      4998      4993      4997      4999
      4993      4997      5000      4998      4997      4999      4998      4997      5000
      4999      4997      5000      4993      5001      5002      4993      5001      5003
      4993      5001      5004      5002      5001      5003      5002      5001      5004
      5003      5001      5004      4993      5005      5006      4993      5005      5007
      4993      5005      5008      5006      5005      5007      5006      5005      5008
      5007      5005      5008      4994      5009      5010      4994      5009      5011
      4994      5009      5015      5010      5009      5011      5010      5009      5015
      5011      5009      5015      5013      5012      5014      5013      5012      5015
      5013      5012      5016      5014      5012      5015      5014      5012      5016
      5015      5012      5016      5009      5015      5012      5012      5016      5017
      5016      5017      5018      5016      5017      5019      5016      5017      5020
      5018      5017      5019      5018      5017      5020      5019      5017      5020
      5017      5020      5021      5017      5020      5022      5017      5020      5028
      5021      5020      5022      5021      5020      5028      5022      5020      5028
      5020      5022      5023      5022      5023      5024      5022      5023      5025
      5024      5023      5025      5023      5025      5026      5023      5025      5027
      5023      5025      5037      5026      5025      5027      5026      5025      5037
      5027      5025      5037      5020      5028      5029      5020      5028      5030
      5020      5028      5031      5029      5028      5030      5029      5028      5031
      5030      5028      5031      5028      5031      5032      5031      5032      5033
      5031      5032      5034      5033      5032      5034      5032      5034      5035
      5032      5034      5036      5032      5034      5084      5035      5034      5036
      5035      5034      5084      5036      5034      5084      5025      5037      5038
      5025      5037      5039      5025      5037      5040      5038      5037      5039
      5038      5037      5040      5039      5037      5040      5037      5040      5041
      5037      5040      5042      5037      5040      5043      5041      5040      5042
      5041      5040      5043      5042      5040      5043      5040      5043      5044
      5040      5043      5045      5040      5043      5046      5044      5043      5045
      5044      5043      5046      5045      5043      5046      5043      5046      5047
      5043      5046      5048      5043      5046      5049      5047      5046      5048
      5047      5046      5049      5048      5046      5049      5046      5049      5050
      5046      5049      5051      5046      5049      5052      5050      5049      5051
      5050      5049      5052      5051      5049      5052      5049      5052      5053
      5049      5052      5054      5049      5052      5055      5053      5052      5054
      5053      5052      5055      5054      5052      5055      5052      5055      5056
      5052      5055      5057      5056      5055      5057      5055      5057      5058
      5055      5057      5059      5058      5057      5059      5057      5059      5060
      5057      5059      5061      5057      5059      5062      5060      5059      5061
      5060      5059      5062      5061      5059      5062      5059      5062      5063
      5059      5062      5064      5059      5062      5065      5063      5062      5064
      5063      5062      5065      5064      5062      5065      5062      5065      5066
      5062      5065      5067      5062      5065      5068      5066      5065      5067
      5066      5065      5068      5067      5065      5068      5065      5068      5069
      5065      5068      5070      5065      5068      5071      5069      5068      5070
      5069      5068      5071      5070      5068      5071      5068      5071      5072
      5068      5071      5073      5068      5071      5074      5072      5071      5073
      5072      5071      5074      5073      5071      5074      5071      5074      5075
      5071      5074      5076      5071      5074      5077      5075      5074      5076
      5075      5074      5077      5076      5074      5077      5074      5077      5078
      5074      5077      5079      5074      5077      5080      5078      5077      5079
      5078      5077      5080      5079      5077      5080      5077      5080      5081
      5077      5080      5082      5077      5080      5083      5081      5080      5082
      5081      5080      5083      5082      5080      5083      5034      5084      5085
      5034      5084      5086      5034      5084      5087      5085      5084      5086
      5085      5084      5087      5086      5084      5087      5084      5087      5088
      5084      5087      5089      5084      5087      5090      5088      5087      5089
      5088      5087      5090      5089      5087      5090      5087      5090      5091
      5087      5090      5092      5087      5090      5093      5091      5090      5092
      5091      5090      5093      5092      5090      5093      5090      5093      5094
      5090      5093      5095      5090      5093      5096      5094      5093      5095
      5094      5093      5096      5095      5093      5096      5093      5096      5097
      5093      5096      5098      5093      5096      5099      5097      5096      5098
      5097      5096      5099      5098      5096      5099      5096      5099      5100
      5096      5099      5101      5096      5099      5102      5100      5099      5101
      5100      5099      5102      5101      5099      5102      5099      5102      5103
      5099      5102      5104      5099      5102      5105      5103      5102      5104
      5103      5102      5105      5104      5102      5105      5102      5105      5106
      5102      5105      5107      5102      5105      5108      5106      5105      5107
      5106      5105      5108      5107      5105      5108      5105      5108      5109
      5105      5108      5110      5105      5108      5111      5109      5108      5110
      5109      5108      5111      5110      5108      5111      5108      5111      5112
      5108      5111      5113      5108      5111      5114      5112      5111      5113
      5112      5111      5114      5113      5111      5114      5111      5114      5115
      5111      5114      5116      5111      5114      5117      5115      5114      5116
      5115      5114      5117      5116      5114      5117      5114      5117      5118
      5114      5117      5119      5114      5117      5120      5118      5117      5119
      5118      5117      5120      5119      5117      5120      5117      5120      5121
      5117      5120      5122      5117      5120      5123      5121      5120      5122
      5121      5120      5123      5122      5120      5123      5120      5123      5124
      5120      5123      5125      5120      5123      5126      5124      5123      5125
      5124      5123      5126      5125      5123      5126      5128      5127      5131
      5128      5127      5135      5128      5127      5139      5131      5127      5135
      5131      5127      5139      5135      5127      5139      5127      5128      5129
      5127      5128      5130      5127      5128      5143      5129      5128      5130
      5129      5128      5143      5130      5128      5143      5127      5131      5132
      5127      5131      5133      5127      5131      5134      5132      5131      5133
      5132      5131      5134      5133      5131      5134      5127      5135      5136
      5127      5135      5137      5127      5135      5138      5136      5135      5137
      5136      5135      5138      5137      5135      5138      5127      5139      5140
      5127      5139      5141      5127      5139      5142      5140      5139      5141
      5140      5139      5142      5141      5139      5142      5128      5143      5144
      5128      5143      5145      5128      5143      5149      5144      5143      5145
      5144      5143      5149      5145      5143      5149      5147      5146      5148
      5147      5146      5149      5147      5146      5150      5148      5146      5149
      5148      5146      5150      5149      5146      5150      5143      5149      5146
      5146      5150      5151      5150      5151      5152      5150      5151      5153
      5150      5151      5154      5152      5151      5153      5152      5151      5154
      5153      5151      5154      5151      5154      5155      5151      5154      5156
      5151      5154      5162      5155      5154      5156      5155      5154      5162
      5156      5154      5162      5154      5156      5157      5156      5157      5158
      5156      5157      5159      5158      5157      5159      5157      5159      5160
      5157      5159      5161      5157      5159      5171      5160      5159      5161
      5160      5159      5171      5161      5159      5171      5154      5162      5163
      5154      5162      5164      5154      5162      5165      5163      5162      5164
      5163      5162      5165      5164      5162      5165      5162      5165      5166
      5165      5166      5167      5165      5166      5168      5167      5166      5168
      5166      5168      5169      5166      5168      5170      5166      5168      5218
      5169      5168      5170      5169      5168      5218      5170      5168      5218
      5159      5171      5172      5159      5171      5173      5159      5171      5174
      5172      5171      5173      5172      5171      5174      5173      5171      5174
      5171      5174      5175      5171      5174      5176      5171      5174      5177
      5175      5174      5176      5175      5174      5177      5176      5174      5177
      5174      5177      5178      5174      5177      5179      5174      5177      5180
      5178      5177      5179      5178      5177      5180      5179      5177      5180
      5177      5180      5181      5177      5180      5182      5177      5180      5183
      5181      5180      5182      5181      5180      5183      5182      5180      5183
      5180      5183      5184      5180      5183      5185      5180      5183      5186
      5184      5183      5185      5184      5183      5186      5185      5183      5186
      5183      5186      5187      5183      5186      5188      5183      5186      5189
      5187      5186      5188      5187      5186      5189      5188      5186      5189
      5186      5189      5190      5186      5189      5191      5190      5189      5191
      5189      5191      5192      5189      5191      5193      5192      5191      5193
      5191      5193      5194      5191      5193      5195      5191      5193      5196
      5194      5193      5195      5194      5193      5196      5195      5193      5196
      5193      5196      5197      5193      5196      5198      5193      5196      5199
      5197      5196      5198      5197      5196      5199      5198      5196      5199
      5196      5199      5200      5196      5199      5201      5196      5199      5202
      5200      5199      5201      5200      5199      5202      5201      5199      5202
      5199      5202      5203      5199      5202      5204      5199      5202      5205
      5203      5202      5204      5203      5202      5205      5204      5202      5205
      5202      5205      5206      5202      5205      5207      5202      5205      5208
      5206      5205      5207      5206      5205      5208      5207      5205      5208
      5205      5208      5209      5205      5208      5210      5205      5208      5211
      5209      5208      5210      5209      5208      5211      5210      5208      5211
      5208      5211      5212      5208      5211      5213      5208      5211      5214
      5212      5211      5213      5212      5211      5214      5213      5211      5214
      5211      5214      5215      5211      5214      5216      5211      5214      5217
      5215      5214      5216      5215      5214      5217      5216      5214      5217
      5168      5218      5219      5168      5218      5220      5168      5218      5221
      5219      5218      5220      5219      5218      5221      5220      5218      5221
      5218      5221      5222      5218      5221      5223      5218      5221      5224
      5222      5221      5223      5222      5221      5224      5223      5221      5224
      5221      5224      5225      5221      5224      5226      5221      5224      5227
      5225      5224      5226      5225      5224      5227      5226      5224      5227
      5224      5227      5228      5224      5227      5229      5224      5227      5230
      5228      5227      5229      5228      5227      5230      5229      5227      5230
      5227      5230      5231      5227      5230      5232      5227      5230      5233
      5231      5230      5232      5231      5230      5233      5232      5230      5233
      5230      5233      5234      5230      5233      5235      5230      5233      5236
      5234      5233      5235      5234      5233      5236      5235      5233      5236
      5233      5236      5237      5233      5236      5238      5233      5236      5239
      5237      5236      5238      5237      5236      5239      5238      5236      5239
      5236      5239      5240      5236      5239      5241      5236      5239      5242
      5240      5239      5241      5240      5239      5242      5241      5239      5242
      5239      5242      5243      5239      5242      5244      5239      5242      5245
      5243      5242      5244      5243      5242      5245      5244      5242      5245
      5242      5245      5246      5242      5245      5247      5242      5245      5248
      5246      5245      5247      5246      5245      5248      5247      5245      5248
      5245      5248      5249      5245      5248      5250      5245      5248      5251
      5249      5248      5250      5249      5248      5251      5250      5248      5251
      5248      5251      5252      5248      5251      5253      5248      5251      5254
      5252      5251      5253      5252      5251      5254      5253      5251      5254
      5251      5254      5255      5251      5254      5256      5251      5254      5257
      5255      5254      5256      5255      5254      5257      5256      5254      5257
      5254      5257      5258      5254      5257      5259      5254      5257      5260
      5258      5257      5259      5258      5257      5260      5259      5257      5260
      5262      5261      5265      5262      5261      5269      5262      5261      5273
      5265      5261      5269      5265      5261      5273      5269      5261      5273
      5261      5262      5263      5261      5262      5264      5261      5262      5277
      5263      5262      5264      5263      5262      5277      5264      5262      5277
      5261      5265      5266      5261      5265      5267      5261      5265      5268
      5266      5265      5267      5266      5265      5268      5267      5265      5268
      5261      5269      5270      5261      5269      5271      5261      5269      5272
      5270      5269      5271      5270      5269      5272      5271      5269      5272
      5261      5273      5274      5261      5273      5275      5261      5273      5276
      5274      5273      5275      5274      5273      5276      5275      5273      5276
      5262      5277      5278      5262      5277      5279      5262      5277      5283
      5278      5277      5279      5278      5277      5283      5279      5277      5283
      5281      5280      5282      5281      5280      5283      5281      5280      5284
      5282      5280      5283      5282      5280      5284      5283      5280      5284
      5277      5283      5280      5280      5284      5285      5284      5285      5286
      5284      5285      5287      5284      5285      5288      5286      5285      5287
      5286      5285      5288      5287      5285      5288      5285      5288      5289
      5285      5288      5290      5285      5288      5296      5289      5288      5290
      5289      5288      5296      5290      5288      5296      5288      5290      5291
      5290      5291      5292      5290      5291      5293      5292      5291      5293
      5291      5293      5294      5291      5293      5295      5291      5293      5305
      5294      5293      5295      5294      5293      5305      5295      5293      5305
      5288      5296      5297      5288      5296      5298      5288      5296      5299
      5297      5296      5298      5297      5296      5299      5298      5296      5299
      5296      5299      5300      5299      5300      5301      5299      5300      5302
      5301      5300      5302      5300      5302      5303      5300      5302      5304
      5300      5302      5352      5303      5302      5304      5303      5302      5352
      5304      5302      5352      5293      5305      5306      5293      5305      5307
      5293      5305      5308      5306      5305      5307      5306      5305      5308
      5307      5305      5308      5305      5308      5309      5305      5308      5310
      5305      5308      5311      5309      5308      5310      5309      5308      5311
      5310      5308      5311      5308      5311      5312      5308      5311      5313
      5308      5311      5314      5312      5311      5313      5312      5311      5314
      5313      5311      5314      5311      5314      5315      5311      5314      5316
      5311      5314      5317      5315      5314      5316      5315      5314      5317
      5316      5314      5317      5314      5317      5318      5314      5317      5319
      5314      5317      5320      5318      5317      5319      5318      5317      5320
      5319      5317      5320      5317      5320      5321      5317      5320      5322
      5317      5320      5323      5321      5320      5322      5321      5320      5323
      5322      5320      5323      5320      5323      5324      5320      5323      5325
      5324      5323      5325      5323      5325      5326      5323      5325      5327
      5326      5325      5327      5325      5327      5328      5325      5327      5329
      5325      5327      5330      5328      5327      5329      5328      5327      5330
      5329      5327      5330      5327      5330      5331      5327      5330      5332
      5327      5330      5333      5331      5330      5332      5331      5330      5333
      5332      5330      5333      5330      5333      5334      5330      5333      5335
      5330      5333      5336      5334      5333      5335      5334      5333      5336
      5335      5333      5336      5333      5336      5337      5333      5336      5338
      5333      5336      5339      5337      5336      5338      5337      5336      5339
      5338      5336      5339      5336      5339      5340      5336      5339      5341
      5336      5339      5342      5340      5339      5341      5340      5339      5342
      5341      5339      5342      5339      5342      5343      5339      5342      5344
      5339      5342      5345      5343      5342      5344      5343      5342      5345
      5344      5342      5345      5342      5345      5346      5342      5345      5347
      5342      5345      5348      5346      5345      5347      5346      5345      5348
      5347      5345      5348      5345      5348      5349      5345      5348      5350
      5345      5348      5351      5349      5348      5350      5349      5348      5351
      5350      5348      5351      5302      5352      5353      5302      5352      5354
      5302      5352      5355      5353      5352      5354      5353      5352      5355
      5354      5352      5355      5352      5355      5356      5352      5355      5357
      5352      5355      5358      5356      5355      5357      5356      5355      5358
      5357      5355      5358      5355      5358      5359      5355      5358      5360
      5355      5358      5361      5359      5358      5360      5359      5358      5361
      5360      5358      5361      5358      5361      5362      5358      5361      5363
      5358      5361      5364      5362      5361      5363      5362      5361      5364
      5363      5361      5364      5361      5364      5365      5361      5364      5366
      5361      5364      5367      5365      5364      5366      5365      5364      5367
      5366      5364      5367      5364      5367      5368      5364      5367      5369
      5364      5367      5370      5368      5367      5369      5368      5367      5370
      5369      5367      5370      5367      5370      5371      5367      5370      5372
      5367      5370      5373      5371      5370      5372      5371      5370      5373
      5372      5370      5373      5370      5373      5374      5370      5373      5375
      5370      5373      5376      5374      5373      5375      5374      5373      5376
      5375      5373      5376      5373      5376      5377      5373      5376      5378
      5373      5376      5379      5377      5376      5378      5377      5376      5379
      5378      5376      5379      5376      5379      5380      5376      5379      5381
      5376      5379      5382      5380      5379      5381      5380      5379      5382
      5381      5379      5382      5379      5382      5383      5379      5382      5384
      5379      5382      5385      5383      5382      5384      5383      5382      5385
      5384      5382      5385      5382      5385      5386      5382      5385      5387
      5382      5385      5388      5386      5385      5387      5386      5385      5388
      5387      5385      5388      5385      5388      5389      5385      5388      5390
      5385      5388      5391      5389      5388      5390      5389      5388      5391
      5390      5388      5391      5388      5391      5392      5388      5391      5393
      5388      5391      5394      5392      5391      5393      5392      5391      5394
      5393      5391      5394      5396      5395      5399      5396      5395      5403
      5396      5395      5407      5399      5395      5403      5399      5395      5407
      5403      5395      5407      5395      5396      5397      5395      5396      5398
      5395      5396      5411      5397      5396      5398      5397      5396      5411
      5398      5396      5411      5395      5399      5400      5395      5399      5401
      5395      5399      5402      5400      5399      5401      5400      5399      5402
      5401      5399      5402      5395      5403      5404      5395      5403      5405
      5395      5403      5406      5404      5403      5405      5404      5403      5406
      5405      5403      5406      5395      5407      5408      5395      5407      5409
      5395      5407      5410      5408      5407      5409      5408      5407      5410
      5409      5407      5410      5396      5411      5412      5396      5411      5413
      5396      5411      5417      5412      5411      5413      5412      5411      5417
      5413      5411      5417      5415      5414      5416      5415      5414      5417
      5415      5414      5418      5416      5414      5417      5416      5414      5418
      5417      5414      5418      5411      5417      5414      5414      5418      5419
      5418      5419      5420      5418      5419      5421      5418      5419      5422
      5420      5419      5421      5420      5419      5422      5421      5419      5422
      5419      5422      5423      5419      5422      5424      5419      5422      5430
      5423      5422      5424      5423      5422      5430      5424      5422      5430
      5422      5424      5425      5424      5425      5426      5424      5425      5427
      5426      5425      5427      5425      5427      5428      5425      5427      5429
      5425      5427      5439      5428      5427      5429      5428      5427      5439
      5429      5427      5439      5422      5430      5431      5422      5430      5432
      5422      5430      5433      5431      5430      5432      5431      5430      5433
      5432      5430      5433      5430      5433      5434      5433      5434      5435
      5433      5434      5436      5435      5434      5436      5434      5436      5437
      5434      5436      5438      5434      5436      5486      5437      5436      5438
      5437      5436      5486      5438      5436      5486      5427      5439      5440
      5427      5439      5441      5427      5439      5442      5440      5439      5441
      5440      5439      5442      5441      5439      5442      5439      5442      5443
      5439      5442      5444      5439      5442      5445      5443      5442      5444
      5443      5442      5445      5444      5442      5445      5442      5445      5446
      5442      5445      5447      5442      5445      5448      5446      5445      5447
      5446      5445      5448      5447      5445      5448      5445      5448      5449
      5445      5448      5450      5445      5448      5451      5449      5448      5450
      5449      5448      5451      5450      5448      5451      5448      5451      5452
      5448      5451      5453      5448      5451      5454      5452      5451      5453
      5452      5451      5454      5453      5451      5454      5451      5454      5455
      5451      5454      5456      5451      5454      5457      5455      5454      5456
      5455      5454      5457      5456      5454      5457      5454      5457      5458
      5454      5457      5459      5458      5457      5459      5457      5459      5460
      5457      5459      5461      5460      5459      5461      5459      5461      5462
      5459      5461      5463      5459      5461      5464      5462      5461      5463
      5462      5461      5464      5463      5461      5464      5461      5464      5465
      5461      5464      5466      5461      5464      5467      5465      5464      5466
      5465      5464      5467      5466      5464      5467      5464      5467      5468
      5464      5467      5469      5464      5467      5470      5468      5467      5469
      5468      5467      5470      5469      5467      5470      5467      5470      5471
      5467      5470      5472      5467      5470      5473      5471      5470      5472
      5471      5470      5473      5472      5470      5473      5470      5473      5474
      5470      5473      5475      5470      5473      5476      5474      5473      5475
      5474      5473      5476      5475      5473      5476      5473      5476      5477
      5473      5476      5478      5473      5476      5479      5477      5476      5478
      5477      5476      5479      5478      5476      5479      5476      5479      5480
      5476      5479      5481      5476      5479      5482      5480      5479      5481
      5480      5479      5482      5481      5479      5482      5479      5482      5483
      5479      5482      5484      5479      5482      5485      5483      5482      5484
      5483      5482      5485      5484      5482      5485      5436      5486      5487
      5436      5486      5488      5436      5486      5489      5487      5486      5488
      5487      5486      5489      5488      5486      5489      5486      5489      5490
      5486      5489      5491      5486      5489      5492      5490      5489      5491
      5490      5489      5492      5491      5489      5492      5489      5492      5493
      5489      5492      5494      5489      5492      5495      5493      5492      5494
      5493      5492      5495      5494      5492      5495      5492      5495      5496
      5492      5495      5497      5492      5495      5498      5496      5495      5497
      5496      5495      5498      5497      5495      5498      5495      5498      5499
      5495      5498      5500      5495      5498      5501      5499      5498      5500
      5499      5498      5501      5500      5498      5501      5498      5501      5502
      5498      5501      5503      5498      5501      5504      5502      5501      5503
      5502      5501      5504      5503      5501      5504      5501      5504      5505
      5501      5504      5506      5501      5504      5507      5505      5504      5506
      5505      5504      5507      5506      5504      5507      5504      5507      5508
      5504      5507      5509      5504      5507      5510      5508      5507      5509
      5508      5507      5510      5509      5507      5510      5507      5510      5511
      5507      5510      5512      5507      5510      5513      5511      5510      5512
      5511      5510      5513      5512      5510      5513      5510      5513      5514
      5510      5513      5515      5510      5513      5516      5514      5513      5515
      5514      5513      5516      5515      5513      5516      5513      5516      5517
      5513      5516      5518      5513      5516      5519      5517      5516      5518
      5517      5516      5519      5518      5516      5519      5516      5519      5520
      5516      5519      5521      5516      5519      5522      5520      5519      5521
      5520      5519      5522      5521      5519      5522      5519      5522      5523
      5519      5522      5524      5519      5522      5525      5523      5522      5524
      5523      5522      5525      5524      5522      5525      5522      5525      5526
      5522      5525      5527      5522      5525      5528      5526      5525      5527
      5526      5525      5528      5527      5525      5528      5530      5529      5533
      5530      5529      5537      5530      5529      5541      5533      5529      5537
      5533      5529      5541      5537      5529      5541      5529      5530      5531
      5529      5530      5532      5529      5530      5545      5531      5530      5532
      5531      5530      5545      5532      5530      5545      5529      5533      5534
      5529      5533      5535      5529      5533      5536      5534      5533      5535
      5534      5533      5536      5535      5533      5536      5529      5537      5538
      5529      5537      5539      5529      5537      5540      5538      5537      5539
      5538      5537      5540      5539      5537      5540      5529      5541      5542
      5529      5541      5543      5529      5541      5544      5542      5541      5543
      5542      5541      5544      5543      5541      5544      5530      5545      5546
      5530      5545      5547      5530      5545      5551      5546      5545      5547
      5546      5545      5551      5547      5545      5551      5549      5548      5550
      5549      5548      5551      5549      5548      5552      5550      5548      5551
      5550      5548      5552      5551      5548      5552      5545      5551      5548
      5548      5552      5553      5552      5553      5554      5552      5553      5555
      5552      5553      5556      5554      5553      5555      5554      5553      5556
      5555      5553      5556      5553      5556      5557      5553      5556      5558
      5553      5556      5564      5557      5556      5558      5557      5556      5564
      5558      5556      5564      5556      5558      5559      5558      5559      5560
      5558      5559      5561      5560      5559      5561      5559      5561      5562
      5559      5561      5563      5559      5561      5573      5562      5561      5563
      5562      5561      5573      5563      5561      5573      5556      5564      5565
      5556      5564      5566      5556      5564      5567      5565      5564      5566
      5565      5564      5567      5566      5564      5567      5564      5567      5568
      5567      5568      5569      5567      5568      5570      5569      5568      5570
      5568      5570      5571      5568      5570      5572      5568      5570      5620
      5571      5570      5572      5571      5570      5620      5572      5570      5620
      5561      5573      5574      5561      5573      5575      5561      5573      5576
      5574      5573      5575      5574      5573      5576      5575      5573      5576
      5573      5576      5577      5573      5576      5578      5573      5576      5579
      5577      5576      5578      5577      5576      5579      5578      5576      5579
      5576      5579      5580      5576      5579      5581      5576      5579      5582
      5580      5579      5581      5580      5579      5582      5581      5579      5582
      5579      5582      5583      5579      5582      5584      5579      5582      5585
      5583      5582      5584      5583      5582      5585      5584      5582      5585
      5582      5585      5586      5582      5585      5587      5582      5585      5588
      5586      5585      5587      5586      5585      5588      5587      5585      5588
      5585      5588      5589      5585      5588      5590      5585      5588      5591
      5589      5588      5590      5589      5588      5591      5590      5588      5591
      5588      5591      5592      5588      5591      5593      5592      5591      5593
      5591      5593      5594      5591      5593      5595      5594      5593      5595
      5593      5595      5596      5593      5595      5597      5593      5595      5598
      5596      5595      5597      5596      5595      5598      5597      5595      5598
      5595      5598      5599      5595      5598      5600      5595      5598      5601
      5599      5598      5600      5599      5598      5601      5600      5598      5601
      5598      5601      5602      5598      5601      5603      5598      5601      5604
      5602      5601      5603      5602      5601      5604      5603      5601      5604
      5601      5604      5605      5601      5604      5606      5601      5604      5607
      5605      5604      5606      5605      5604      5607      5606      5604      5607
      5604      5607      5608      5604      5607      5609      5604      5607      5610
      5608      5607      5609      5608      5607      5610      5609      5607      5610
      5607      5610      5611      5607      5610      5612      5607      5610      5613
      5611      5610      5612      5611      5610      5613      5612      5610      5613
      5610      5613      5614      5610      5613      5615      5610      5613      5616
      5614      5613      5615      5614      5613      5616      5615      5613      5616
      5613      5616      5617      5613      5616      5618      5613      5616      5619
      5617      5616      5618      5617      5616      5619      5618      5616      5619
      5570      5620      5621      5570      5620      5622      5570      5620      5623
      5621      5620      5622      5621      5620      5623      5622      5620      5623
      5620      5623      5624      5620      5623      5625      5620      5623      5626
      5624      5623      5625      5624      5623      5626      5625      5623      5626
      5623      5626      5627      5623      5626      5628      5623      5626      5629
      5627      5626      5628      5627      5626      5629      5628      5626      5629
      5626      5629      5630      5626      5629      5631      5626      5629      5632
      5630      5629      5631      5630      5629      5632      5631      5629      5632
      5629      5632      5633      5629      5632      5634      5629      5632      5635
      5633      5632      5634      5633      5632      5635      5634      5632      5635
      5632      5635      5636      5632      5635      5637      5632      5635      5638
      5636      5635      5637      5636      5635      5638      5637      5635      5638
      5635      5638      5639      5635      5638      5640      5635      5638      5641
      5639      5638      5640      5639      5638      5641      5640      5638      5641
      5638      5641      5642      5638      5641      5643      5638      5641      5644
      5642      5641      5643      5642      5641      5644      5643      5641      5644
      5641      5644      5645      5641      5644      5646      5641      5644      5647
      5645      5644      5646      5645      5644      5647      5646      5644      5647
      5644      5647      5648      5644      5647      5649      5644      5647      5650
      5648      5647      5649      5648      5647      5650      5649      5647      5650
      5647      5650      5651      5647      5650      5652      5647      5650      5653
      5651      5650      5652      5651      5650      5653      5652      5650      5653
      5650      5653      5654      5650      5653      5655      5650      5653      5656
      5654      5653      5655      5654      5653      5656      5655      5653      5656
      5653      5656      5657      5653      5656      5658      5653      5656      5659
      5657      5656      5658      5657      5656      5659      5658      5656      5659
      5656      5659      5660      5656      5659      5661      5656      5659      5662
      5660      5659      5661      5660      5659      5662      5661      5659      5662
      5664      5663      5667      5664      5663      5671      5664      5663      5675
      5667      5663      5671      5667      5663      5675      5671      5663      5675
      5663      5664      5665      5663      5664      5666      5663      5664      5679
      5665      5664      5666      5665      5664      5679      5666      5664      5679
      5663      5667      5668      5663      5667      5669      5663      5667      5670
      5668      5667      5669      5668      5667      5670      5669      5667      5670
      5663      5671      5672      5663      5671      5673      5663      5671      5674
      5672      5671      5673      5672      5671      5674      5673      5671      5674
      5663      5675      5676      5663      5675      5677      5663      5675      5678
      5676      5675      5677      5676      5675      5678      5677      5675      5678
      5664      5679      5680      5664      5679      5681      5664      5679      5685
      5680      5679      5681      5680      5679      5685      5681      5679      5685
      5683      5682      5684      5683      5682      5685      5683      5682      5686
      5684      5682      5685      5684      5682      5686      5685      5682      5686
      5679      5685      5682      5682      5686      5687      5686      5687      5688
      5686      5687      5689      5686      5687      5690      5688      5687      5689
      5688      5687      5690      5689      5687      5690      5687      5690      5691
      5687      5690      5692      5687      5690      5698      5691      5690      5692
      5691      5690      5698      5692      5690      5698      5690      5692      5693
      5692      5693      5694      5692      5693      5695      5694      5693      5695
      5693      5695      5696      5693      5695      5697      5693      5695      5707
      5696      5695      5697      5696      5695      5707      5697      5695      5707
      5690      5698      5699      5690      5698      5700      5690      5698      5701
      5699      5698      5700      5699      5698      5701      5700      5698      5701
      5698      5701      5702      5701      5702      5703      5701      5702      5704
      5703      5702      5704      5702      5704      5705      5702      5704      5706
      5702      5704      5754      5705      5704      5706      5705      5704      5754
      5706      5704      5754      5695      5707      5708      5695      5707      5709
      5695      5707      5710      5708      5707      5709      5708      5707      5710
      5709      5707      5710      5707      5710      5711      5707      5710      5712
      5707      5710      5713      5711      5710      5712      5711      5710      5713
      5712      5710      5713      5710      5713      5714      5710      5713      5715
      5710      5713      5716      5714      5713      5715      5714      5713      5716
      5715      5713      5716      5713      5716      5717      5713      5716      5718
      5713      5716      5719      5717      5716      5718      5717      5716      5719
      5718      5716      5719      5716      5719      5720      5716      5719      5721
      5716      5719      5722      5720      5719      5721      5720      5719      5722
      5721      5719      5722      5719      5722      5723      5719      5722      5724
      5719      5722      5725      5723      5722      5724      5723      5722      5725
      5724      5722      5725      5722      5725      5726      5722      5725      5727
      5726      5725      5727      5725      5727      5728      5725      5727      5729
      5728      5727      5729      5727      5729      5730      5727      5729      5731
      5727      5729      5732      5730      5729      5731      5730      5729      5732
      5731      5729      5732      5729      5732      5733      5729      5732      5734
      5729      5732      5735      5733      5732      5734      5733      5732      5735
      5734      5732      5735      5732      5735      5736      5732      5735      5737
      5732      5735      5738      5736      5735      5737      5736      5735      5738
      5737      5735      5738      5735      5738      5739      5735      5738      5740
      5735      5738      5741      5739      5738      5740      5739      5738      5741
      5740      5738      5741      5738      5741      5742      5738      5741      5743
      5738      5741      5744      5742      5741      5743      5742      5741      5744
      5743      5741      5744      5741      5744      5745      5741      5744      5746
      5741      5744      5747      5745      5744      5746      5745      5744      5747
      5746      5744      5747      5744      5747      5748      5744      5747      5749
      5744      5747      5750      5748      5747      5749      5748      5747      5750
      5749      5747      5750      5747      5750      5751      5747      5750      5752
      5747      5750      5753      5751      5750      5752      5751      5750      5753
      5752      5750      5753      5704      5754      5755      5704      5754      5756
      5704      5754      5757      5755      5754      5756      5755      5754      5757
      5756      5754      5757      5754      5757      5758      5754      5757      5759
      5754      5757      5760      5758      5757      5759      5758      5757      5760
      5759      5757      5760      5757      5760      5761      5757      5760      5762
      5757      5760      5763      5761      5760      5762      5761      5760      5763
      5762      5760      5763      5760      5763      5764      5760      5763      5765
      5760      5763      5766      5764      5763      5765      5764      5763      5766
      5765      5763      5766      5763      5766      5767      5763      5766      5768
      5763      5766      5769      5767      5766      5768      5767      5766      5769
      5768      5766      5769      5766      5769      5770      5766      5769      5771
      5766      5769      5772      5770      5769      5771      5770      5769      5772
      5771      5769      5772      5769      5772      5773      5769      5772      5774
      5769      5772      5775      5773      5772      5774      5773      5772      5775
      5774      5772      5775      5772      5775      5776      5772      5775      5777
      5772      5775      5778      5776      5775      5777      5776      5775      5778
      5777      5775      5778      5775      5778      5779      5775      5778      5780
      5775      5778      5781      5779      5778      5780      5779      5778      5781
      5780      5778      5781      5778      5781      5782      5778      5781      5783
      5778      5781      5784      5782      5781      5783      5782      5781      5784
      5783      5781      5784      5781      5784      5785      5781      5784      5786
      5781      5784      5787      5785      5784      5786      5785      5784      5787
      5786      5784      5787      5784      5787      5788      5784      5787      5789
      5784      5787      5790      5788      5787      5789      5788      5787      5790
      5789      5787      5790      5787      5790      5791      5787      5790      5792
      5787      5790      5793      5791      5790      5792      5791      5790      5793
      5792      5790      5793      5790      5793      5794      5790      5793      5795
      5790      5793      5796      5794      5793      5795      5794      5793      5796
      5795      5793      5796      5798      5797      5801      5798      5797      5805
      5798      5797      5809      5801      5797      5805      5801      5797      5809
      5805      5797      5809      5797      5798      5799      5797      5798      5800
      5797      5798      5813      5799      5798      5800      5799      5798      5813
      5800      5798      5813      5797      5801      5802      5797      5801      5803
      5797      5801      5804      5802      5801      5803      5802      5801      5804
      5803      5801      5804      5797      5805      5806      5797      5805      5807
      5797      5805      5808      5806      5805      5807      5806      5805      5808
      5807      5805      5808      5797      5809      5810      5797      5809      5811
      5797      5809      5812      5810      5809      5811      5810      5809      5812
      5811      5809      5812      5798      5813      5814      5798      5813      5815
      5798      5813      5819      5814      5813      5815      5814      5813      5819
      5815      5813      5819      5817      5816      5818      5817      5816      5819
      5817      5816      5820      5818      5816      5819      5818      5816      5820
      5819      5816      5820      5813      5819      5816      5816      5820      5821
      5820      5821      5822      5820      5821      5823      5820      5821      5824
      5822      5821      5823      5822      5821      5824      5823      5821      5824
      5821      5824      5825      5821      5824      5826      5821      5824      5832
      5825      5824      5826      5825      5824      5832      5826      5824      5832
      5824      5826      5827      5826      5827      5828      5826      5827      5829
      5828      5827      5829      5827      5829      5830      5827      5829      5831
      5827      5829      5841      5830      5829      5831      5830      5829      5841
      5831      5829      5841      5824      5832      5833      5824      5832      5834
      5824      5832      5835      5833      5832      5834      5833      5832      5835
      5834      5832      5835      5832      5835      5836      5835      5836      5837
      5835      5836      5838      5837      5836      5838      5836      5838      5839
      5836      5838      5840      5836      5838      5888      5839      5838      5840
      5839      5838      5888      5840      5838      5888      5829      5841      5842
      5829      5841      5843      5829      5841      5844      5842      5841      5843
      5842      5841      5844      5843      5841      5844      5841      5844      5845
      5841      5844      5846      5841      5844      5847      5845      5844      5846
      5845      5844      5847      5846      5844      5847      5844      5847      5848
      5844      5847      5849      5844      5847      5850      5848      5847      5849
      5848      5847      5850      5849      5847      5850      5847      5850      5851
      5847      5850      5852      5847      5850      5853      5851      5850      5852
      5851      5850      5853      5852      5850      5853      5850      5853      5854
      5850      5853      5855      5850      5853      5856      5854      5853      5855
      5854      5853      5856      5855      5853      5856      5853      5856      5857
      5853      5856      5858      5853      5856      5859      5857      5856      5858
      5857      5856      5859      5858      5856      5859      5856      5859      5860
      5856      5859      5861      5860      5859      5861      5859      5861      5862
      5859      5861      5863      5862      5861      5863      5861      5863      5864
      5861      5863      5865      5861      5863      5866      5864      5863      5865
      5864      5863      5866      5865      5863      5866      5863      5866      5867
      5863      5866      5868      5863      5866      5869      5867      5866      5868
      5867      5866      5869      5868      5866      5869      5866      5869      5870
      5866      5869      5871      5866      5869      5872      5870      5869      5871
      5870      5869      5872      5871      5869      5872      5869      5872      5873
      5869      5872      5874      5869      5872      5875      5873      5872      5874
      5873      5872      5875      5874      5872      5875      5872      5875      5876
      5872      5875      5877      5872      5875      5878      5876      5875      5877
      5876      5875      5878      5877      5875      5878      5875      5878      5879
      5875      5878      5880      5875      5878      5881      5879      5878      5880
      5879      5878      5881      5880      5878      5881      5878      5881      5882
      5878      5881      5883      5878      5881      5884      5882      5881      5883
      5882      5881      5884      5883      5881      5884      5881      5884      5885
      5881      5884      5886      5881      5884      5887      5885      5884      5886
      5885      5884      5887      5886      5884      5887      5838      5888      5889
      5838      5888      5890      5838      5888      5891      5889      5888      5890
      5889      5888      5891      5890      5888      5891      5888      5891      5892
      5888      5891      5893      5888      5891      5894      5892      5891      5893
      5892      5891      5894      5893      5891      5894      5891      5894      5895
      5891      5894      5896      5891      5894      5897      5895      5894      5896
      5895      5894      5897      5896      5894      5897      5894      5897      5898
      5894      5897      5899      5894      5897      5900      5898      5897      5899
      5898      5897      5900      5899      5897      5900      5897      5900      5901
      5897      5900      5902      5897      5900      5903      5901      5900      5902
      5901      5900      5903      5902      5900      5903      5900      5903      5904
      5900      5903      5905      5900      5903      5906      5904      5903      5905
      5904      5903      5906      5905      5903      5906      5903      5906      5907
      5903      5906      5908      5903      5906      5909      5907      5906      5908
      5907      5906      5909      5908      5906      5909      5906      5909      5910
      5906      5909      5911      5906      5909      5912      5910      5909      5911
      5910      5909      5912      5911      5909      5912      5909      5912      5913
      5909      5912      5914      5909      5912      5915      5913      5912      5914
      5913      5912      5915      5914      5912      5915      5912      5915      5916
      5912      5915      5917      5912      5915      5918      5916      5915      5917
      5916      5915      5918      5917      5915      5918      5915      5918      5919
      5915      5918      5920      5915      5918      5921      5919      5918      5920
      5919      5918      5921      5920      5918      5921      5918      5921      5922
      5918      5921      5923      5918      5921      5924      5922      5921      5923
      5922      5921      5924      5923      5921      5924      5921      5924      5925
      5921      5924      5926      5921      5924      5927      5925      5924      5926
      5925      5924      5927      5926      5924      5927      5924      5927      5928
      5924      5927      5929      5924      5927      5930      5928      5927      5929
      5928      5927      5930      5929      5927      5930      5932      5931      5935
      5932      5931      5939      5932      5931      5943      5935      5931      5939
      5935      5931      5943      5939      5931      5943      5931      5932      5933
      5931      5932      5934      5931      5932      5947      5933      5932      5934
      5933      5932      5947      5934      5932      5947      5931      5935      5936
      5931      5935      5937      5931      5935      5938      5936      5935      5937
      5936      5935      5938      5937      5935      5938      5931      5939      5940
      5931      5939      5941      5931      5939      5942      5940      5939      5941
      5940      5939      5942      5941      5939      5942      5931      5943      5944
      5931      5943      5945      5931      5943      5946      5944      5943      5945
      5944      5943      5946      5945      5943      5946      5932      5947      5948
      5932      5947      5949      5932      5947      5953      5948      5947      5949
      5948      5947      5953      5949      5947      5953      5951      5950      5952
      5951      5950      5953      5951      5950      5954      5952      5950      5953
      5952      5950      5954      5953      5950      5954      5947      5953      5950
      5950      5954      5955      5954      5955      5956      5954      5955      5957
      5954      5955      5958      5956      5955      5957      5956      5955      5958
      5957      5955      5958      5955      5958      5959      5955      5958      5960
      5955      5958      5966      5959      5958      5960      5959      5958      5966
      5960      5958      5966      5958      5960      5961      5960      5961      5962
      5960      5961      5963      5962      5961      5963      5961      5963      5964
      5961      5963      5965      5961      5963      5975      5964      5963      5965
      5964      5963      5975      5965      5963      5975      5958      5966      5967
      5958      5966      5968      5958      5966      5969      5967      5966      5968
      5967      5966      5969      5968      5966      5969      5966      5969      5970
      5969      5970      5971      5969      5970      5972      5971      5970      5972
      5970      5972      5973      5970      5972      5974      5970      5972      6022
      5973      5972      5974      5973      5972      6022      5974      5972      6022
      5963      5975      5976      5963      5975      5977      5963      5975      5978
      5976      5975      5977      5976      5975      5978      5977      5975      5978
      5975      5978      5979      5975      5978      5980      5975      5978      5981
      5979      5978      5980      5979      5978      5981      5980      5978      5981
      5978      5981      5982      5978      5981      5983      5978      5981      5984
      5982      5981      5983      5982      5981      5984      5983      5981      5984
      5981      5984      5985      5981      5984      5986      5981      5984      5987
      5985      5984      5986      5985      5984      5987      5986      5984      5987
      5984      5987      5988      5984      5987      5989      5984      5987      5990
      5988      5987      5989      5988      5987      5990      5989      5987      5990
      5987      5990      5991      5987      5990      5992      5987      5990      5993
      5991      5990      5992      5991      5990      5993      5992      5990      5993
      5990      5993      5994      5990      5993      5995      5994      5993      5995
      5993      5995      5996      5993      5995      5997      5996      5995      5997
      5995      5997      5998      5995      5997      5999      5995      5997      6000
      5998      5997      5999      5998      5997      6000      5999      5997      6000
      5997      6000      6001      5997      6000      6002      5997      6000      6003
      6001      6000      6002      6001      6000      6003      6002      6000      6003
      6000      6003      6004      6000      6003      6005      6000      6003      6006
      6004      6003      6005      6004      6003      6006      6005      6003      6006
      6003      6006      6007      6003      6006      6008      6003      6006      6009
      6007      6006      6008      6007      6006      6009      6008      6006      6009
      6006      6009      6010      6006      6009      6011      6006      6009      6012
      6010      6009      6011      6010      6009      6012      6011      6009      6012
      6009      6012      6013      6009      6012      6014      6009      6012      6015
      6013      6012      6014      6013      6012      6015      6014      6012      6015
      6012      6015      6016      6012      6015      6017      6012      6015      6018
      6016      6015      6017      6016      6015      6018      6017      6015      6018
      6015      6018      6019      6015      6018      6020      6015      6018      6021
      6019      6018      6020      6019      6018      6021      6020      6018      6021
      5972      6022      6023      5972      6022      6024      5972      6022      6025
      6023      6022      6024      6023      6022      6025      6024      6022      6025
      6022      6025      6026      6022      6025      6027      6022      6025      6028
      6026      6025      6027      6026      6025      6028      6027      6025      6028
      6025      6028      6029      6025      6028      6030      6025      6028      6031
      6029      6028      6030      6029      6028      6031      6030      6028      6031
      6028      6031      6032      6028      6031      6033      6028      6031      6034
      6032      6031      6033      6032      6031      6034      6033      6031      6034
      6031      6034      6035      6031      6034      6036      6031      6034      6037
      6035      6034      6036      6035      6034      6037      6036      6034      6037
      6034      6037      6038      6034      6037      6039      6034      6037      6040
      6038      6037      6039      6038      6037      6040      6039      6037      6040
      6037      6040      6041      6037      6040      6042      6037      6040      6043
      6041      6040      6042      6041      6040      6043      6042      6040      6043
      6040      6043      6044      6040      6043      6045      6040      6043      6046
      6044      6043      6045      6044      6043      6046      6045      6043      6046
      6043      6046      6047      6043      6046      6048      6043      6046      6049
      6047      6046      6048      6047      6046      6049      6048      6046      6049
      6046      6049      6050      6046      6049      6051      6046      6049      6052
      6050      6049      6051      6050      6049      6052      6051      6049      6052
      6049      6052      6053      6049      6052      6054      6049      6052      6055
      6053      6052      6054      6053      6052      6055      6054      6052      6055
      6052      6055      6056      6052      6055      6057      6052      6055      6058
      6056      6055      6057      6056      6055      6058      6057      6055      6058
      6055      6058      6059      6055      6058      6060      6055      6058      6061
      6059      6058      6060      6059      6058      6061      6060      6058      6061
      6058      6061      6062      6058      6061      6063      6058      6061      6064
      6062      6061      6063      6062      6061      6064      6063      6061      6064
      6066      6065      6069      6066      6065      6073      6066      6065      6077
      6069      6065      6073      6069      6065      6077      6073      6065      6077
      6065      6066      6067      6065      6066      6068      6065      6066      6081
      6067      6066      6068      6067      6066      6081      6068      6066      6081
      6065      6069      6070      6065      6069      6071      6065      6069      6072
      6070      6069      6071      6070      6069      6072      6071      6069      6072
      6065      6073      6074      6065      6073      6075      6065      6073      6076
      6074      6073      6075      6074      6073      6076      6075      6073      6076
      6065      6077      6078      6065      6077      6079      6065      6077      6080
      6078      6077      6079      6078      6077      6080      6079      6077      6080
      6066      6081      6082      6066      6081      6083      6066      6081      6087
      6082      6081      6083      6082      6081      6087      6083      6081      6087
      6085      6084      6086      6085      6084      6087      6085      6084      6088
      6086      6084      6087      6086      6084      6088      6087      6084      6088
      6081      6087      6084      6084      6088      6089      6088      6089      6090
      6088      6089      6091      6088      6089      6092      6090      6089      6091
      6090      6089      6092      6091      6089      6092      6089      6092      6093
      6089      6092      6094      6089      6092      6100      6093      6092      6094
      6093      6092      6100      6094      6092      6100      6092      6094      6095
      6094      6095      6096      6094      6095      6097      6096      6095      6097
      6095      6097      6098      6095      6097      6099      6095      6097      6109
      6098      6097      6099      6098      6097      6109      6099      6097      6109
      6092      6100      6101      6092      6100      6102      6092      6100      6103
      6101      6100      6102      6101      6100      6103      6102      6100      6103
      6100      6103      6104      6103      6104      6105      6103      6104      6106
      6105      6104      6106      6104      6106      6107      6104      6106      6108
      6104      6106      6156      6107      6106      6108      6107      6106      6156
      6108      6106      6156      6097      6109      6110      6097      6109      6111
      6097      6109      6112      6110      6109      6111      6110      6109      6112
      6111      6109      6112      6109      6112      6113      6109      6112      6114
      6109      6112      6115      6113      6112      6114      6113      6112      6115
      6114      6112      6115      6112      6115      6116      6112      6115      6117
      6112      6115      6118      6116      6115      6117      6116      6115      6118
      6117      6115      6118      6115      6118      6119      6115      6118      6120
      6115      6118      6121      6119      6118      6120      6119      6118      6121
      6120      6118      6121      6118      6121      6122      6118      6121      6123
      6118      6121      6124      6122      6121      6123      6122      6121      6124
      6123      6121      6124      6121      6124      6125      6121      6124      6126
      6121      6124      6127      6125      6124      6126      6125      6124      6127
      6126      6124      6127      6124      6127      6128      6124      6127      6129
      6128      6127      6129      6127      6129      6130      6127      6129      6131
      6130      6129      6131      6129      6131      6132      6129      6131      6133
      6129      6131      6134      6132      6131      6133      6132      6131      6134
      6133      6131      6134      6131      6134      6135      6131      6134      6136
      6131      6134      6137      6135      6134      6136      6135      6134      6137
      6136      6134      6137      6134      6137      6138      6134      6137      6139
      6134      6137      6140      6138      6137      6139      6138      6137      6140
      6139      6137      6140      6137      6140      6141      6137      6140      6142
      6137      6140      6143      6141      6140      6142      6141      6140      6143
      6142      6140      6143      6140      6143      6144      6140      6143      6145
      6140      6143      6146      6144      6143      6145      6144      6143      6146
      6145      6143      6146      6143      6146      6147      6143      6146      6148
      6143      6146      6149      6147      6146      6148      6147      6146      6149
      6148      6146      6149      6146      6149      6150      6146      6149      6151
      6146      6149      6152      6150      6149      6151      6150      6149      6152
      6151      6149      6152      6149      6152      6153      6149      6152      6154
      6149      6152      6155      6153      6152      6154      6153      6152      6155
      6154      6152      6155      6106      6156      6157      6106      6156      6158
      6106      6156      6159      6157      6156      6158      6157      6156      6159
      6158      6156      6159      6156      6159      6160      6156      6159      6161
      6156      6159      6162      6160      6159      6161      6160      6159      6162
      6161      6159      6162      6159      6162      6163      6159      6162      6164
      6159      6162      6165      6163      6162      6164      6163      6162      6165
      6164      6162      6165      6162      6165      6166      6162      6165      6167
      6162      6165      6168      6166      6165      6167      6166      6165      6168
      6167      6165      6168      6165      6168      6169      6165      6168      6170
      6165      6168      6171      6169      6168      6170      6169      6168      6171
      6170      6168      6171      6168      6171      6172      6168      6171      6173
      6168      6171      6174      6172      6171      6173      6172      6171      6174
      6173      6171      6174      6171      6174      6175      6171      6174      6176
      6171      6174      6177      6175      6174      6176      6175      6174      6177
      6176      6174      6177      6174      6177      6178      6174      6177      6179
      6174      6177      6180      6178      6177      6179      6178      6177      6180
      6179      6177      6180      6177      6180      6181      6177      6180      6182
      6177      6180      6183      6181      6180      6182      6181      6180      6183
      6182      6180      6183      6180      6183      6184      6180      6183      6185
      6180      6183      6186      6184      6183      6185      6184      6183      6186
      6185      6183      6186      6183      6186      6187      6183      6186      6188
      6183      6186      6189      6187      6186      6188      6187      6186      6189
      6188      6186      6189      6186      6189      6190      6186      6189      6191
      6186      6189      6192      6190      6189      6191      6190      6189      6192
      6191      6189      6192      6189      6192      6193      6189      6192      6194
      6189      6192      6195      6193      6192      6194      6193      6192      6195
      6194      6192      6195      6192      6195      6196      6192      6195      6197
      6192      6195      6198      6196      6195      6197      6196      6195      6198
      6197      6195      6198      6200      6199      6203      6200      6199      6207
      6200      6199      6211      6203      6199      6207      6203      6199      6211
      6207      6199      6211      6199      6200      6201      6199      6200      6202
      6199      6200      6215      6201      6200      6202      6201      6200      6215
      6202      6200      6215      6199      6203      6204      6199      6203      6205
      6199      6203      6206      6204      6203      6205      6204      6203      6206
      6205      6203      6206      6199      6207      6208      6199      6207      6209
      6199      6207      6210      6208      6207      6209      6208      6207      6210
      6209      6207      6210      6199      6211      6212      6199      6211      6213
      6199      6211      6214      6212      6211      6213      6212      6211      6214
      6213      6211      6214      6200      6215      6216      6200      6215      6217
      6200      6215      6221      6216      6215      6217      6216      6215      6221
      6217      6215      6221      6219      6218      6220      6219      6218      6221
      6219      6218      6222      6220      6218      6221      6220      6218      6222
      6221      6218      6222      6215      6221      6218      6218      6222      6223
      6222      6223      6224      6222      6223      6225      6222      6223      6226
      6224      6223      6225      6224      6223      6226      6225      6223      6226
      6223      6226      6227      6223      6226      6228      6223      6226      6234
      6227      6226      6228      6227      6226      6234      6228      6226      6234
      6226      6228      6229      6228      6229      6230      6228      6229      6231
      6230      6229      6231      6229      6231      6232      6229      6231      6233
      6229      6231      6243      6232      6231      6233      6232      6231      6243
      6233      6231      6243      6226      6234      6235      6226      6234      6236
      6226      6234      6237      6235      6234      6236      6235      6234      6237
      6236      6234      6237      6234      6237      6238      6237      6238      6239
      6237      6238      6240      6239      6238      6240      6238      6240      6241
      6238      6240      6242      6238      6240      6290      6241      6240      6242
      6241      6240      6290      6242      6240      6290      6231      6243      6244
      6231      6243      6245      6231      6243      6246      6244      6243      6245
      6244      6243      6246      6245      6243      6246      6243      6246      6247
      6243      6246      6248      6243      6246      6249      6247      6246      6248
      6247      6246      6249      6248      6246      6249      6246      6249      6250
      6246      6249      6251      6246      6249      6252      6250      6249      6251
      6250      6249      6252      6251      6249      6252      6249      6252      6253
      6249      6252      6254      6249      6252      6255      6253      6252      6254
      6253      6252      6255      6254      6252      6255      6252      6255      6256
      6252      6255      6257      6252      6255      6258      6256      6255      6257
      6256      6255      6258      6257      6255      6258      6255      6258      6259
      6255      6258      6260      6255      6258      6261      6259      6258      6260
      6259      6258      6261      6260      6258      6261      6258      6261      6262
      6258      6261      6263      6262      6261      6263      6261      6263      6264
      6261      6263      6265      6264      6263      6265      6263      6265      6266
      6263      6265      6267      6263      6265      6268      6266      6265      6267
      6266      6265      6268      6267      6265      6268      6265      6268      6269
      6265      6268      6270      6265      6268      6271      6269      6268      6270
      6269      6268      6271      6270      6268      6271      6268      6271      6272
      6268      6271      6273      6268      6271      6274      6272      6271      6273
      6272      6271      6274      6273      6271      6274      6271      6274      6275
      6271      6274      6276      6271      6274      6277      6275      6274      6276
      6275      6274      6277      6276      6274      6277      6274      6277      6278
      6274      6277      6279      6274      6277      6280      6278      6277      6279
      6278      6277      6280      6279      6277      6280      6277      6280      6281
      6277      6280      6282      6277      6280      6283      6281      6280      6282
      6281      6280      6283      6282      6280      6283      6280      6283      6284
      6280      6283      6285      6280      6283      6286      6284      6283      6285
      6284      6283      6286      6285      6283      6286      6283      6286      6287
      6283      6286      6288      6283      6286      6289      6287      6286      6288
      6287      6286      6289      6288      6286      6289      6240      6290      6291
      6240      6290      6292      6240      6290      6293      6291      6290      6292
      6291      6290      6293      6292      6290      6293      6290      6293      6294
      6290      6293      6295      6290      6293      6296      6294      6293      6295
      6294      6293      6296      6295      6293      6296      6293      6296      6297
      6293      6296      6298      6293      6296      6299      6297      6296      6298
      6297      6296      6299      6298      6296      6299      6296      6299      6300
      6296      6299      6301      6296      6299      6302      6300      6299      6301
      6300      6299      6302      6301      6299      6302      6299      6302      6303
      6299      6302      6304      6299      6302      6305      6303      6302      6304
      6303      6302      6305      6304      6302      6305      6302      6305      6306
      6302      6305      6307      6302      6305      6308      6306      6305      6307
      6306      6305      6308      6307      6305      6308      6305      6308      6309
      6305      6308      6310      6305      6308      6311      6309      6308      6310
      6309      6308      6311      6310      6308      6311      6308      6311      6312
      6308      6311      6313      6308      6311      6314      6312      6311      6313
      6312      6311      6314      6313      6311      6314      6311      6314      6315
      6311      6314      6316      6311      6314      6317      6315      6314      6316
      6315      6314      6317      6316      6314      6317      6314      6317      6318
      6314      6317      6319      6314      6317      6320      6318      6317      6319
      6318      6317      6320      6319      6317      6320      6317      6320      6321
      6317      6320      6322      6317      6320      6323      6321      6320      6322
      6321      6320      6323      6322      6320      6323      6320      6323      6324
      6320      6323      6325      6320      6323      6326      6324      6323      6325
      6324      6323      6326      6325      6323      6326      6323      6326      6327
      6323      6326      6328      6323      6326      6329      6327      6326      6328
      6327      6326      6329      6328      6326      6329      6326      6329      6330
      6326      6329      6331      6326      6329      6332      6330      6329      6331
      6330      6329      6332      6331      6329      6332      6334      6333      6335
      6334      6333      6336      6334      6333      6337      6335      6333      6336
      6335      6333      6337      6336      6333      6337      6333      6337      6338
      6333      6337      6339      6333      6337      6342      6338      6337      6339
      6338      6337      6342      6339      6337      6342      6337      6339      6340
      6337      6339      6341      6340      6339      6341      6337      6342      6343
      6337      6342      6344      6337      6342      6348      6343      6342      6344
      6343      6342      6348      6344      6342      6348      6346      6345      6347
      6346      6345      6348      6346      6345      6349      6347      6345      6348
      6347      6345      6349      6348      6345      6349      6342      6348      6345
      6345      6349      6350      6349      6350      6351      6349      6350      6352
      6349      6350      6353      6351      6350      6352      6351      6350      6353
      6352      6350      6353      6350      6353      6354      6350      6353      6355
      6350      6353      6361      6354      6353      6355      6354      6353      6361
      6355      6353      6361      6353      6355      6356      6355      6356      6357
      6355      6356      6358      6357      6356      6358      6356      6358      6359
      6356      6358      6360      6356      6358      6370      6359      6358      6360
      6359      6358      6370      6360      6358      6370      6353      6361      6362
      6353      6361      6363      6353      6361      6364      6362      6361      6363
      6362      6361      6364      6363      6361      6364      6361      6364      6365
      6364      6365      6366      6364      6365      6367      6366      6365      6367
      6365      6367      6368      6365      6367      6369      6365      6367      6417
      6368      6367      6369      6368      6367      6417      6369      6367      6417
      6358      6370      6371      6358      6370      6372      6358      6370      6373
      6371      6370      6372      6371      6370      6373      6372      6370      6373
      6370      6373      6374      6370      6373      6375      6370      6373      6376
      6374      6373      6375      6374      6373      6376      6375      6373      6376
      6373      6376      6377      6373      6376      6378      6373      6376      6379
      6377      6376      6378      6377      6376      6379      6378      6376      6379
      6376      6379      6380      6376      6379      6381      6376      6379      6382
      6380      6379      6381      6380      6379      6382      6381      6379      6382
      6379      6382      6383      6379      6382      6384      6379      6382      6385
      6383      6382      6384      6383      6382      6385      6384      6382      6385
      6382      6385      6386      6382      6385      6387      6382      6385      6388
      6386      6385      6387      6386      6385      6388      6387      6385      6388
      6385      6388      6389      6385      6388      6390      6389      6388      6390
      6388      6390      6391      6388      6390      6392      6391      6390      6392
      6390      6392      6393      6390      6392      6394      6390      6392      6395
      6393      6392      6394      6393      6392      6395      6394      6392      6395
      6392      6395      6396      6392      6395      6397      6392      6395      6398
      6396      6395      6397      6396      6395      6398      6397      6395      6398
      6395      6398      6399      6395      6398      6400      6395      6398      6401
      6399      6398      6400      6399      6398      6401      6400      6398      6401
      6398      6401      6402      6398      6401      6403      6398      6401      6404
      6402      6401      6403      6402      6401      6404      6403      6401      6404
      6401      6404      6405      6401      6404      6406      6401      6404      6407
      6405      6404      6406      6405      6404      6407      6406      6404      6407
      6404      6407      6408      6404      6407      6409      6404      6407      6410
      6408      6407      6409      6408      6407      6410      6409      6407      6410
      6407      6410      6411      6407      6410      6412      6407      6410      6413
      6411      6410      6412      6411      6410      6413      6412      6410      6413
      6410      6413      6414      6410      6413      6415      6410      6413      6416
      6414      6413      6415      6414      6413      6416      6415      6413      6416
      6367      6417      6418      6367      6417      6419      6367      6417      6420
      6418      6417      6419      6418      6417      6420      6419      6417      6420
      6417      6420      6421      6417      6420      6422      6417      6420      6423
      6421      6420      6422      6421      6420      6423      6422      6420      6423
      6420      6423      6424      6420      6423      6425      6420      6423      6426
      6424      6423      6425      6424      6423      6426      6425      6423      6426
      6423      6426      6427      6423      6426      6428      6423      6426      6429
      6427      6426      6428      6427      6426      6429      6428      6426      6429
      6426      6429      6430      6426      6429      6431      6426      6429      6432
      6430      6429      6431      6430      6429      6432      6431      6429      6432
      6429      6432      6433      6429      6432      6434      6429      6432      6435
      6433      6432      6434      6433      6432      6435      6434      6432      6435
      6432      6435      6436      6432      6435      6437      6432      6435      6438
      6436      6435      6437      6436      6435      6438      6437      6435      6438
      6435      6438      6439      6435      6438      6440      6435      6438      6441
      6439      6438      6440      6439      6438      6441      6440      6438      6441
      6438      6441      6442      6438      6441      6443      6438      6441      6444
      6442      6441      6443      6442      6441      6444      6443      6441      6444
      6441      6444      6445      6441      6444      6446      6441      6444      6447
      6445      6444      6446      6445      6444      6447      6446      6444      6447
      6444      6447      6448      6444      6447      6449      6444      6447      6450
      6448      6447      6449      6448      6447      6450      6449      6447      6450
      6447      6450      6451      6447      6450      6452      6447      6450      6453
      6451      6450      6452      6451      6450      6453      6452      6450      6453
      6450      6453      6454      6450      6453      6455      6450      6453      6456
      6454      6453      6455      6454      6453      6456      6455      6453      6456
      6453      6456      6457      6453      6456      6458      6453      6456      6459
      6457      6456      6458      6457      6456      6459      6458      6456      6459
      6461      6460      6462      6461      6460      6463      6461      6460      6464
      6462      6460      6463      6462      6460      6464      6463      6460      6464
      6460      6464      6465      6460      6464      6466      6460      6464      6469
      6465      6464      6466      6465      6464      6469      6466      6464      6469
      6464      6466      6467      6464      6466      6468      6467      6466      6468
      6464      6469      6470      6464      6469      6471      6464      6469      6475
      6470      6469      6471      6470      6469      6475      6471      6469      6475
      6473      6472      6474      6473      6472      6475      6473      6472      6476
      6474      6472      6475      6474      6472      6476      6475      6472      6476
      6469      6475      6472      6472      6476      6477      6476      6477      6478
      6476      6477      6479      6476      6477      6480      6478      6477      6479
      6478      6477      6480      6479      6477      6480      6477      6480      6481
      6477      6480      6482      6477      6480      6488      6481      6480      6482
      6481      6480      6488      6482      6480      6488      6480      6482      6483
      6482      6483      6484      6482      6483      6485      6484      6483      6485
      6483      6485      6486      6483      6485      6487      6483      6485      6497
      6486      6485      6487      6486      6485      6497      6487      6485      6497
      6480      6488      6489      6480      6488      6490      6480      6488      6491
      6489      6488      6490      6489      6488      6491      6490      6488      6491
      6488      6491      6492      6491      6492      6493      6491      6492      6494
      6493      6492      6494      6492      6494      6495      6492      6494      6496
      6492      6494      6544      6495      6494      6496      6495      6494      6544
      6496      6494      6544      6485      6497      6498      6485      6497      6499
      6485      6497      6500      6498      6497      6499      6498      6497      6500
      6499      6497      6500      6497      6500      6501      6497      6500      6502
      6497      6500      6503      6501      6500      6502      6501      6500      6503
      6502      6500      6503      6500      6503      6504      6500      6503      6505
      6500      6503      6506      6504      6503      6505      6504      6503      6506
      6505      6503      6506      6503      6506      6507      6503      6506      6508
      6503      6506      6509      6507      6506      6508      6507      6506      6509
      6508      6506      6509      6506      6509      6510      6506      6509      6511
      6506      6509      6512      6510      6509      6511      6510      6509      6512
      6511      6509      6512      6509      6512      6513      6509      6512      6514
      6509      6512      6515      6513      6512      6514      6513      6512      6515
      6514      6512      6515      6512      6515      6516      6512      6515      6517
      6516      6515      6517      6515      6517      6518      6515      6517      6519
      6518      6517      6519      6517      6519      6520      6517      6519      6521
      6517      6519      6522      6520      6519      6521      6520      6519      6522
      6521      6519      6522      6519      6522      6523      6519      6522      6524
      6519      6522      6525      6523      6522      6524      6523      6522      6525
      6524      6522      6525      6522      6525      6526      6522      6525      6527
      6522      6525      6528      6526      6525      6527      6526      6525      6528
      6527      6525      6528      6525      6528      6529      6525      6528      6530
      6525      6528      6531      6529      6528      6530      6529      6528      6531
      6530      6528      6531      6528      6531      6532      6528      6531      6533
      6528      6531      6534      6532      6531      6533      6532      6531      6534
      6533      6531      6534      6531      6534      6535      6531      6534      6536
      6531      6534      6537      6535      6534      6536      6535      6534      6537
      6536      6534      6537      6534      6537      6538      6534      6537      6539
      6534      6537      6540      6538      6537      6539      6538      6537      6540
      6539      6537      6540      6537      6540      6541      6537      6540      6542
      6537      6540      6543      6541      6540      6542      6541      6540      6543
      6542      6540      6543      6494      6544      6545      6494      6544      6546
      6494      6544      6547      6545      6544      6546      6545      6544      6547
      6546      6544      6547      6544      6547      6548      6544      6547      6549
      6544      6547      6550      6548      6547      6549      6548      6547      6550
      6549      6547      6550      6547      6550      6551      6547      6550      6552
      6547      6550      6553      6551      6550      6552      6551      6550      6553
      6552      6550      6553      6550      6553      6554      6550      6553      6555
      6550      6553      6556      6554      6553      6555      6554      6553      6556
      6555      6553      6556      6553      6556      6557      6553      6556      6558
      6553      6556      6559      6557      6556      6558      6557      6556      6559
      6558      6556      6559      6556      6559      6560      6556      6559      6561
      6556      6559      6562      6560      6559      6561      6560      6559      6562
      6561      6559      6562      6559      6562      6563      6559      6562      6564
      6559      6562      6565      6563      6562      6564      6563      6562      6565
      6564      6562      6565      6562      6565      6566      6562      6565      6567
      6562      6565      6568      6566      6565      6567      6566      6565      6568
      6567      6565      6568      6565      6568      6569      6565      6568      6570
      6565      6568      6571      6569      6568      6570      6569      6568      6571
      6570      6568      6571      6568      6571      6572      6568      6571      6573
      6568      6571      6574      6572      6571      6573      6572      6571      6574
      6573      6571      6574      6571      6574      6575      6571      6574      6576
      6571      6574      6577      6575      6574      6576      6575      6574      6577
      6576      6574      6577      6574      6577      6578      6574      6577      6579
      6574      6577      6580      6578      6577      6579      6578      6577      6580
      6579      6577      6580      6577      6580      6581      6577      6580      6582
      6577      6580      6583      6581      6580      6582      6581      6580      6583
      6582      6580      6583      6580      6583      6584      6580      6583      6585
      6580      6583      6586      6584      6583      6585      6584      6583      6586
      6585      6583      6586      6588      6587      6591      6588      6587      6595
      6588      6587      6599      6591      6587      6595      6591      6587      6599
      6595      6587      6599      6587      6588      6589      6587      6588      6590
      6587      6588      6603      6589      6588      6590      6589      6588      6603
      6590      6588      6603      6587      6591      6592      6587      6591      6593
      6587      6591      6594      6592      6591      6593      6592      6591      6594
      6593      6591      6594      6587      6595      6596      6587      6595      6597
      6587      6595      6598      6596      6595      6597      6596      6595      6598
      6597      6595      6598      6587      6599      6600      6587      6599      6601
      6587      6599      6602      6600      6599      6601      6600      6599      6602
      6601      6599      6602      6588      6603      6604      6588      6603      6605
      6588      6603      6609      6604      6603      6605      6604      6603      6609
      6605      6603      6609      6607      6606      6608      6607      6606      6609
      6607      6606      6610      6608      6606      6609      6608      6606      6610
      6609      6606      6610      6603      6609      6606      6606      6610      6611
      6610      6611      6612      6610      6611      6613      6610      6611      6614
      6612      6611      6613      6612      6611      6614      6613      6611      6614
      6611      6614      6615      6611      6614      6616      6611      6614      6622
      6615      6614      6616      6615      6614      6622      6616      6614      6622
      6614      6616      6617      6616      6617      6618      6616      6617      6619
      6618      6617      6619      6617      6619      6620      6617      6619      6621
      6617      6619      6631      6620      6619      6621      6620      6619      6631
      6621      6619      6631      6614      6622      6623      6614      6622      6624
      6614      6622      6625      6623      6622      6624      6623      6622      6625
      6624      6622      6625      6622      6625      6626      6625      6626      6627
      6625      6626      6628      6627      6626      6628      6626      6628      6629
      6626      6628      6630      6626      6628      6678      6629      6628      6630
      6629      6628      6678      6630      6628      6678      6619      6631      6632
      6619      6631      6633      6619      6631      6634      6632      6631      6633
      6632      6631      6634      6633      6631      6634      6631      6634      6635
      6631      6634      6636      6631      6634      6637      6635      6634      6636
      6635      6634      6637      6636      6634      6637      6634      6637      6638
      6634      6637      6639      6634      6637      6640      6638      6637      6639
      6638      6637      6640      6639      6637      6640      6637      6640      6641
      6637      6640      6642      6637      6640      6643      6641      6640      6642
      6641      6640      6643      6642      6640      6643      6640      6643      6644
      6640      6643      6645      6640      6643      6646      6644      6643      6645
      6644      6643      6646      6645      6643      6646      6643      6646      6647
      6643      6646      6648      6643      6646      6649      6647      6646      6648
      6647      6646      6649      6648      6646      6649      6646      6649      6650
      6646      6649      6651      6650      6649      6651      6649      6651      6652
      6649      6651      6653      6652      6651      6653      6651      6653      6654
      6651      6653      6655      6651      6653      6656      6654      6653      6655
      6654      6653      6656      6655      6653      6656      6653      6656      6657
      6653      6656      6658      6653      6656      6659      6657      6656      6658
      6657      6656      6659      6658      6656      6659      6656      6659      6660
      6656      6659      6661      6656      6659      6662      6660      6659      6661
      6660      6659      6662      6661      6659      6662      6659      6662      6663
      6659      6662      6664      6659      6662      6665      6663      6662      6664
      6663      6662      6665      6664      6662      6665      6662      6665      6666
      6662      6665      6667      6662      6665      6668      6666      6665      6667
      6666      6665      6668      6667      6665      6668      6665      6668      6669
      6665      6668      6670      6665      6668      6671      6669      6668      6670
      6669      6668      6671      6670      6668      6671      6668      6671      6672
      6668      6671      6673      6668      6671      6674      6672      6671      6673
      6672      6671      6674      6673      6671      6674      6671      6674      6675
      6671      6674      6676      6671      6674      6677      6675      6674      6676
      6675      6674      6677      6676      6674      6677      6628      6678      6679
      6628      6678      6680      6628      6678      6681      6679      6678      6680
      6679      6678      6681      6680      6678      6681      6678      6681      6682
      6678      6681      6683      6678      6681      6684      6682      6681      6683
      6682      6681      6684      6683      6681      6684      6681      6684      6685
      6681      6684      6686      6681      6684      6687      6685      6684      6686
      6685      6684      6687      6686      6684      6687      6684      6687      6688
      6684      6687      6689      6684      6687      6690      6688      6687      6689
      6688      6687      6690      6689      6687      6690      6687      6690      6691
      6687      6690      6692      6687      6690      6693      6691      6690      6692
      6691      6690      6693      6692      6690      6693      6690      6693      6694
      6690      6693      6695      6690      6693      6696      6694      6693      6695
      6694      6693      6696      6695      6693      6696      6693      6696      6697
      6693      6696      6698      6693      6696      6699      6697      6696      6698
      6697      6696      6699      6698      6696      6699      6696      6699      6700
      6696      6699      6701      6696      6699      6702      6700      6699      6701
      6700      6699      6702      6701      6699      6702      6699      6702      6703
      6699      6702      6704      6699      6702      6705      6703      6702      6704
      6703      6702      6705      6704      6702      6705      6702      6705      6706
      6702      6705      6707      6702      6705      6708      6706      6705      6707
      6706      6705      6708      6707      6705      6708      6705      6708      6709
      6705      6708      6710      6705      6708      6711      6709      6708      6710
      6709      6708      6711      6710      6708      6711      6708      6711      6712
      6708      6711      6713      6708      6711      6714      6712      6711      6713
      6712      6711      6714      6713      6711      6714      6711      6714      6715
      6711      6714      6716      6711      6714      6717      6715      6714      6716
      6715      6714      6717      6716      6714      6717      6714      6717      6718
      6714      6717      6719      6714      6717      6720      6718      6717      6719
      6718      6717      6720      6719      6717      6720      6722      6721      6725
      6722      6721      6729      6722      6721      6733      6725      6721      6729
      6725      6721      6733      6729      6721      6733      6721      6722      6723
      6721      6722      6724      6721      6722      6737      6723      6722      6724
      6723      6722      6737      6724      6722      6737      6721      6725      6726
      6721      6725      6727      6721      6725      6728      6726      6725      6727
      6726      6725      6728      6727      6725      6728      6721      6729      6730
      6721      6729      6731      6721      6729      6732      6730      6729      6731
      6730      6729      6732      6731      6729      6732      6721      6733      6734
      6721      6733      6735      6721      6733      6736      6734      6733      6735
      6734      6733      6736      6735      6733      6736      6722      6737      6738
      6722      6737      6739      6722      6737      6743      6738      6737      6739
      6738      6737      6743      6739      6737      6743      6741      6740      6742
      6741      6740      6743      6741      6740      6744      6742      6740      6743
      6742      6740      6744      6743      6740      6744      6737      6743      6740
      6740      6744      6745      6744      6745      6746      6744      6745      6747
      6744      6745      6748      6746      6745      6747      6746      6745      6748
      6747      6745      6748      6745      6748      6749      6745      6748      6750
      6745      6748      6756      6749      6748      6750      6749      6748      6756
      6750      6748      6756      6748      6750      6751      6750      6751      6752
      6750      6751      6753      6752      6751      6753      6751      6753      6754
      6751      6753      6755      6751      6753      6765      6754      6753      6755
      6754      6753      6765      6755      6753      6765      6748      6756      6757
      6748      6756      6758      6748      6756      6759      6757      6756      6758
      6757      6756      6759      6758      6756      6759      6756      6759      6760
      6759      6760      6761      6759      6760      6762      6761      6760      6762
      6760      6762      6763      6760      6762      6764      6760      6762      6812
      6763      6762      6764      6763      6762      6812      6764      6762      6812
      6753      6765      6766      6753      6765      6767      6753      6765      6768
      6766      6765      6767      6766      6765      6768      6767      6765      6768
      6765      6768      6769      6765      6768      6770      6765      6768      6771
      6769      6768      6770      6769      6768      6771      6770      6768      6771
      6768      6771      6772      6768      6771      6773      6768      6771      6774
      6772      6771      6773      6772      6771      6774      6773      6771      6774
      6771      6774      6775      6771      6774      6776      6771      6774      6777
      6775      6774      6776      6775      6774      6777      6776      6774      6777
      6774      6777      6778      6774      6777      6779      6774      6777      6780
      6778      6777      6779      6778      6777      6780      6779      6777      6780
      6777      6780      6781      6777      6780      6782      6777      6780      6783
      6781      6780      6782      6781      6780      6783      6782      6780      6783
      6780      6783      6784      6780      6783      6785      6784      6783      6785
      6783      6785      6786      6783      6785      6787      6786      6785      6787
      6785      6787      6788      6785      6787      6789      6785      6787      6790
      6788      6787      6789      6788      6787      6790      6789      6787      6790
      6787      6790      6791      6787      6790      6792      6787      6790      6793
      6791      6790      6792      6791      6790      6793      6792      6790      6793
      6790      6793      6794      6790      6793      6795      6790      6793      6796
      6794      6793      6795      6794      6793      6796      6795      6793      6796
      6793      6796      6797      6793      6796      6798      6793      6796      6799
      6797      6796      6798      6797      6796      6799      6798      6796      6799
      6796      6799      6800      6796      6799      6801      6796      6799      6802
      6800      6799      6801      6800      6799      6802      6801      6799      6802
      6799      6802      6803      6799      6802      6804      6799      6802      6805
      6803      6802      6804      6803      6802      6805      6804      6802      6805
      6802      6805      6806      6802      6805      6807      6802      6805      6808
      6806      6805      6807      6806      6805      6808      6807      6805      6808
      6805      6808      6809      6805      6808      6810      6805      6808      6811
      6809      6808      6810      6809      6808      6811      6810      6808      6811
      6762      6812      6813      6762      6812      6814      6762      6812      6815
      6813      6812      6814      6813      6812      6815      6814      6812      6815
      6812      6815      6816      6812      6815      6817      6812      6815      6818
      6816      6815      6817      6816      6815      6818      6817      6815      6818
      6815      6818      6819      6815      6818      6820      6815      6818      6821
      6819      6818      6820      6819      6818      6821      6820      6818      6821
      6818      6821      6822      6818      6821      6823      6818      6821      6824
      6822      6821      6823      6822      6821      6824      6823      6821      6824
      6821      6824      6825      6821      6824      6826      6821      6824      6827
      6825      6824      6826      6825      6824      6827      6826      6824      6827
      6824      6827      6828      6824      6827      6829      6824      6827      6830
      6828      6827      6829      6828      6827      6830      6829      6827      6830
      6827      6830      6831      6827      6830      6832      6827      6830      6833
      6831      6830      6832      6831      6830      6833      6832      6830      6833
      6830      6833      6834      6830      6833      6835      6830      6833      6836
      6834      6833      6835      6834      6833      6836      6835      6833      6836
      6833      6836      6837      6833      6836      6838      6833      6836      6839
      6837      6836      6838      6837      6836      6839      6838      6836      6839
      6836      6839      6840      6836      6839      6841      6836      6839      6842
      6840      6839      6841      6840      6839      6842      6841      6839      6842
      6839      6842      6843      6839      6842      6844      6839      6842      6845
      6843      6842      6844      6843      6842      6845      6844      6842      6845
      6842      6845      6846      6842      6845      6847      6842      6845      6848
      6846      6845      6847      6846      6845      6848      6847      6845      6848
      6845      6848      6849      6845      6848      6850      6845      6848      6851
      6849      6848      6850      6849      6848      6851      6850      6848      6851
      6848      6851      6852      6848      6851      6853      6848      6851      6854
      6852      6851      6853      6852      6851      6854      6853      6851      6854
      6856      6855      6859      6856      6855      6863      6856      6855      6867
      6859      6855      6863      6859      6855      6867      6863      6855      6867
      6855      6856      6857      6855      6856      6858      6855      6856      6871
      6857      6856      6858      6857      6856      6871      6858      6856      6871
      6855      6859      6860      6855      6859      6861      6855      6859      6862
      6860      6859      6861      6860      6859      6862      6861      6859      6862
      6855      6863      6864      6855      6863      6865      6855      6863      6866
      6864      6863      6865      6864      6863      6866      6865      6863      6866
      6855      6867      6868      6855      6867      6869      6855      6867      6870
      6868      6867      6869      6868      6867      6870      6869      6867      6870
      6856      6871      6872      6856      6871      6873      6856      6871      6877
      6872      6871      6873      6872      6871      6877      6873      6871      6877
      6875      6874      6876      6875      6874      6877      6875      6874      6878
      6876      6874      6877      6876      6874      6878      6877      6874      6878
      6871      6877      6874      6874      6878      6879      6878      6879      6880
      6878      6879      6881      6878      6879      6882      6880      6879      6881
      6880      6879      6882      6881      6879      6882      6879      6882      6883
      6879      6882      6884      6879      6882      6890      6883      6882      6884
      6883      6882      6890      6884      6882      6890      6882      6884      6885
      6884      6885      6886      6884      6885      6887      6886      6885      6887
      6885      6887      6888      6885      6887      6889      6885      6887      6899
      6888      6887      6889      6888      6887      6899      6889      6887      6899
      6882      6890      6891      6882      6890      6892      6882      6890      6893
      6891      6890      6892      6891      6890      6893      6892      6890      6893
      6890      6893      6894      6893      6894      6895      6893      6894      6896
      6895      6894      6896      6894      6896      6897      6894      6896      6898
      6894      6896      6946      6897      6896      6898      6897      6896      6946
      6898      6896      6946      6887      6899      6900      6887      6899      6901
      6887      6899      6902      6900      6899      6901      6900      6899      6902
      6901      6899      6902      6899      6902      6903      6899      6902      6904
      6899      6902      6905      6903      6902      6904      6903      6902      6905
      6904      6902      6905      6902      6905      6906      6902      6905      6907
      6902      6905      6908      6906      6905      6907      6906      6905      6908
      6907      6905      6908      6905      6908      6909      6905      6908      6910
      6905      6908      6911      6909      6908      6910      6909      6908      6911
      6910      6908      6911      6908      6911      6912      6908      6911      6913
      6908      6911      6914      6912      6911      6913      6912      6911      6914
      6913      6911      6914      6911      6914      6915      6911      6914      6916
      6911      6914      6917      6915      6914      6916      6915      6914      6917
      6916      6914      6917      6914      6917      6918      6914      6917      6919
      6918      6917      6919      6917      6919      6920      6917      6919      6921
      6920      6919      6921      6919      6921      6922      6919      6921      6923
      6919      6921      6924      6922      6921      6923      6922      6921      6924
      6923      6921      6924      6921      6924      6925      6921      6924      6926
      6921      6924      6927      6925      6924      6926      6925      6924      6927
      6926      6924      6927      6924      6927      6928      6924      6927      6929
      6924      6927      6930      6928      6927      6929      6928      6927      6930
      6929      6927      6930      6927      6930      6931      6927      6930      6932
      6927      6930      6933      6931      6930      6932      6931      6930      6933
      6932      6930      6933      6930      6933      6934      6930      6933      6935
      6930      6933      6936      6934      6933      6935      6934      6933      6936
      6935      6933      6936      6933      6936      6937      6933      6936      6938
      6933      6936      6939      6937      6936      6938      6937      6936      6939
      6938      6936      6939      6936      6939      6940      6936      6939      6941
      6936      6939      6942      6940      6939      6941      6940      6939      6942
      6941      6939      6942      6939      6942      6943      6939      6942      6944
      6939      6942      6945      6943      6942      6944      6943      6942      6945
      6944      6942      6945      6896      6946      6947      6896      6946      6948
      6896      6946      6949      6947      6946      6948      6947      6946      6949
      6948      6946      6949      6946      6949      6950      6946      6949      6951
      6946      6949      6952      6950      6949      6951      6950      6949      6952
      6951      6949      6952      6949      6952      6953      6949      6952      6954
      6949      6952      6955      6953      6952      6954      6953      6952      6955
      6954      6952      6955      6952      6955      6956      6952      6955      6957
      6952      6955      6958      6956      6955      6957      6956      6955      6958
      6957      6955      6958      6955      6958      6959      6955      6958      6960
      6955      6958      6961      6959      6958      6960      6959      6958      6961
      6960      6958      6961      6958      6961      6962      6958      6961      6963
      6958      6961      6964      6962      6961      6963      6962      6961      6964
      6963      6961      6964      6961      6964      6965      6961      6964      6966
      6961      6964      6967      6965      6964      6966      6965      6964      6967
      6966      6964      6967      6964      6967      6968      6964      6967      6969
      6964      6967      6970      6968      6967      6969      6968      6967      6970
      6969      6967      6970      6967      6970      6971      6967      6970      6972
      6967      6970      6973      6971      6970      6972      6971      6970      6973
      6972      6970      6973      6970      6973      6974      6970      6973      6975
      6970      6973      6976      6974      6973      6975      6974      6973      6976
      6975      6973      6976      6973      6976      6977      6973      6976      6978
      6973      6976      6979      6977      6976      6978      6977      6976      6979
      6978      6976      6979      6976      6979      6980      6976      6979      6981
      6976      6979      6982      6980      6979      6981      6980      6979      6982
      6981      6979      6982      6979      6982      6983      6979      6982      6984
      6979      6982      6985      6983      6982      6984      6983      6982      6985
      6984      6982      6985      6982      6985      6986      6982      6985      6987
      6982      6985      6988      6986      6985      6987      6986      6985      6988
      6987      6985      6988      6990      6989      6991      6990      6989      6992
      6990      6989      6993      6991      6989      6992      6991      6989      6993
      6992      6989      6993      6989      6993      6994      6989      6993      6995
      6989      6993      6998      6994      6993      6995      6994      6993      6998
      6995      6993      6998      6993      6995      6996      6993      6995      6997
      6996      6995      6997      6993      6998      6999      6993      6998      7000
      6993      6998      7004      6999      6998      7000      6999      6998      7004
      7000      6998      7004      7002      7001      7003      7002      7001      7004
      7002      7001      7005      7003      7001      7004      7003      7001      7005
      7004      7001      7005      6998      7004      7001      7001      7005      7006
      7005      7006      7007      7005      7006      7008      7005      7006      7009
      7007      7006      7008      7007      7006      7009      7008      7006      7009
      7006      7009      7010      7006      7009      7011      7006      7009      7017
      7010      7009      7011      7010      7009      7017      7011      7009      7017
      7009      7011      7012      7011      7012      7013      7011      7012      7014
      7013      7012      7014      7012      7014      7015      7012      7014      7016
      7012      7014      7026      7015      7014      7016      7015      7014      7026
      7016      7014      7026      7009      7017      7018      7009      7017      7019
      7009      7017      7020      7018      7017      7019      7018      7017      7020
      7019      7017      7020      7017      7020      7021      7020      7021      7022
      7020      7021      7023      7022      7021      7023      7021      7023      7024
      7021      7023      7025      7021      7023      7073      7024      7023      7025
      7024      7023      7073      7025      7023      7073      7014      7026      7027
      7014      7026      7028      7014      7026      7029      7027      7026      7028
      7027      7026      7029      7028      7026      7029      7026      7029      7030
      7026      7029      7031      7026      7029      7032      7030      7029      7031
      7030      7029      7032      7031      7029      7032      7029      7032      7033
      7029      7032      7034      7029      7032      7035      7033      7032      7034
      7033      7032      7035      7034      7032      7035      7032      7035      7036
      7032      7035      7037      7032      7035      7038      7036      7035      7037
      7036      7035      7038      7037      7035      7038      7035      7038      7039
      7035      7038      7040      7035      7038      7041      7039      7038      7040
      7039      7038      7041      7040      7038      7041      7038      7041      7042
      7038      7041      7043      7038      7041      7044      7042      7041      7043
      7042      7041      7044      7043      7041      7044      7041      7044      7045
      7041      7044      7046      7045      7044      7046      7044      7046      7047
      7044      7046      7048      7047      7046      7048      7046      7048      7049
      7046      7048      7050      7046      7048      7051      7049      7048      7050
      7049      7048      7051      7050      7048      7051      7048      7051      7052
      7048      7051      7053      7048      7051      7054      7052      7051      7053
      7052      7051      7054      7053      7051      7054      7051      7054      7055
      7051      7054      7056      7051      7054      7057      7055      7054      7056
      7055      7054      7057      7056      7054      7057      7054      7057      7058
      7054      7057      7059      7054      7057      7060      7058      7057      7059
      7058      7057      7060      7059      7057      7060      7057      7060      7061
      7057      7060      7062      7057      7060      7063      7061      7060      7062
      7061      7060      7063      7062      7060      7063      7060      7063      7064
      7060      7063      7065      7060      7063      7066      7064      7063      7065
      7064      7063      7066      7065      7063      7066      7063      7066      7067
      7063      7066      7068      7063      7066      7069      7067      7066      7068
      7067      7066      7069      7068      7066      7069      7066      7069      7070
      7066      7069      7071      7066      7069      7072      7070      7069      7071
      7070      7069      7072      7071      7069      7072      7023      7073      7074
      7023      7073      7075      7023      7073      7076      7074      7073      7075
      7074      7073      7076      7075      7073      7076      7073      7076      7077
      7073      7076      7078      7073      7076      7079      7077      7076      7078
      7077      7076      7079      7078      7076      7079      7076      7079      7080
      7076      7079      7081      7076      7079      7082      7080      7079      7081
      7080      7079      7082      7081      7079      7082      7079      7082      7083
      7079      7082      7084      7079      7082      7085      7083      7082      7084
      7083      7082      7085      7084      7082      7085      7082      7085      7086
      7082      7085      7087      7082      7085      7088      7086      7085      7087
      7086      7085      7088      7087      7085      7088      7085      7088      7089
      7085      7088      7090      7085      7088      7091      7089      7088      7090
      7089      7088      7091      7090      7088      7091      7088      7091      7092
      7088      7091      7093      7088      7091      7094      7092      7091      7093
      7092      7091      7094      7093      7091      7094      7091      7094      7095
      7091      7094      7096      7091      7094      7097      7095      7094      7096
      7095      7094      7097      7096      7094      7097      7094      7097      7098
      7094      7097      7099      7094      7097      7100      7098      7097      7099
      7098      7097      7100      7099      7097      7100      7097      7100      7101
      7097      7100      7102      7097      7100      7103      7101      7100      7102
      7101      7100      7103      7102      7100      7103      7100      7103      7104
      7100      7103      7105      7100      7103      7106      7104      7103      7105
      7104      7103      7106      7105      7103      7106      7103      7106      7107
      7103      7106      7108      7103      7106      7109      7107      7106      7108
      7107      7106      7109      7108      7106      7109      7106      7109      7110
      7106      7109      7111      7106      7109      7112      7110      7109      7111
      7110      7109      7112      7111      7109      7112      7109      7112      7113
      7109      7112      7114      7109      7112      7115      7113      7112      7114
      7113      7112      7115      7114      7112      7115      7117      7116      7120
      7117      7116      7124      7117      7116      7128      7120      7116      7124
      7120      7116      7128      7124      7116      7128      7116      7117      7118
      7116      7117      7119      7116      7117      7132      7118      7117      7119
      7118      7117      7132      7119      7117      7132      7116      7120      7121
      7116      7120      7122      7116      7120      7123      7121      7120      7122
      7121      7120      7123      7122      7120      7123      7116      7124      7125
      7116      7124      7126      7116      7124      7127      7125      7124      7126
      7125      7124      7127      7126      7124      7127      7116      7128      7129
      7116      7128      7130      7116      7128      7131      7129      7128      7130
      7129      7128      7131      7130      7128      7131      7117      7132      7133
      7117      7132      7134      7117      7132      7138      7133      7132      7134
      7133      7132      7138      7134      7132      7138      7136      7135      7137
      7136      7135      7138      7136      7135      7139      7137      7135      7138
      7137      7135      7139      7138      7135      7139      7132      7138      7135
      7135      7139      7140      7139      7140      7141      7139      7140      7142
      7139      7140      7143      7141      7140      7142      7141      7140      7143
      7142      7140      7143      7140      7143      7144      7140      7143      7145
      7140      7143      7151      7144      7143      7145      7144      7143      7151
      7145      7143      7151      7143      7145      7146      7145      7146      7147
      7145      7146      7148      7147      7146      7148      7146      7148      7149
      7146      7148      7150      7146      7148      7160      7149      7148      7150
      7149      7148      7160      7150      7148      7160      7143      7151      7152
      7143      7151      7153      7143      7151      7154      7152      7151      7153
      7152      7151      7154      7153      7151      7154      7151      7154      7155
      7154      7155      7156      7154      7155      7157      7156      7155      7157
      7155      7157      7158      7155      7157      7159      7155      7157      7207
      7158      7157      7159      7158      7157      7207      7159      7157      7207
      7148      7160      7161      7148      7160      7162      7148      7160      7163
      7161      7160      7162      7161      7160      7163      7162      7160      7163
      7160      7163      7164      7160      7163      7165      7160      7163      7166
      7164      7163      7165      7164      7163      7166      7165      7163      7166
      7163      7166      7167      7163      7166      7168      7163      7166      7169
      7167      7166      7168      7167      7166      7169      7168      7166      7169
      7166      7169      7170      7166      7169      7171      7166      7169      7172
      7170      7169      7171      7170      7169      7172      7171      7169      7172
      7169      7172      7173      7169      7172      7174      7169      7172      7175
      7173      7172      7174      7173      7172      7175      7174      7172      7175
      7172      7175      7176      7172      7175      7177      7172      7175      7178
      7176      7175      7177      7176      7175      7178      7177      7175      7178
      7175      7178      7179      7175      7178      7180      7179      7178      7180
      7178      7180      7181      7178      7180      7182      7181      7180      7182
      7180      7182      7183      7180      7182      7184      7180      7182      7185
      7183      7182      7184      7183      7182      7185      7184      7182      7185
      7182      7185      7186      7182      7185      7187      7182      7185      7188
      7186      7185      7187      7186      7185      7188      7187      7185      7188
      7185      7188      7189      7185      7188      7190      7185      7188      7191
      7189      7188      7190      7189      7188      7191      7190      7188      7191
      7188      7191      7192      7188      7191      7193      7188      7191      7194
      7192      7191      7193      7192      7191      7194      7193      7191      7194
      7191      7194      7195      7191      7194      7196      7191      7194      7197
      7195      7194      7196      7195      7194      7197      7196      7194      7197
      7194      7197      7198      7194      7197      7199      7194      7197      7200
      7198      7197      7199      7198      7197      7200      7199      7197      7200
      7197      7200      7201      7197      7200      7202      7197      7200      7203
      7201      7200      7202      7201      7200      7203      7202      7200      7203
      7200      7203      7204      7200      7203      7205      7200      7203      7206
      7204      7203      7205      7204      7203      7206      7205      7203      7206
      7157      7207      7208      7157      7207      7209      7157      7207      7210
      7208      7207      7209      7208      7207      7210      7209      7207      7210
      7207      7210      7211      7207      7210      7212      7207      7210      7213
      7211      7210      7212      7211      7210      7213      7212      7210      7213
      7210      7213      7214      7210      7213      7215      7210      7213      7216
      7214      7213      7215      7214      7213      7216      7215      7213      7216
      7213      7216      7217      7213      7216      7218      7213      7216      7219
      7217      7216      7218      7217      7216      7219      7218      7216      7219
      7216      7219      7220      7216      7219      7221      7216      7219      7222
      7220      7219      7221      7220      7219      7222      7221      7219      7222
      7219      7222      7223      7219      7222      7224      7219      7222      7225
      7223      7222      7224      7223      7222      7225      7224      7222      7225
      7222      7225      7226      7222      7225      7227      7222      7225      7228
      7226      7225      7227      7226      7225      7228      7227      7225      7228
      7225      7228      7229      7225      7228      7230      7225      7228      7231
      7229      7228      7230      7229      7228      7231      7230      7228      7231
      7228      7231      7232      7228      7231      7233      7228      7231      7234
      7232      7231      7233      7232      7231      7234      7233      7231      7234
      7231      7234      7235      7231      7234      7236      7231      7234      7237
      7235      7234      7236      7235      7234      7237      7236      7234      7237
      7234      7237      7238      7234      7237      7239      7234      7237      7240
      7238      7237      7239      7238      7237      7240      7239      7237      7240
      7237      7240      7241      7237      7240      7242      7237      7240      7243
      7241      7240      7242      7241      7240      7243      7242      7240      7243
      7240      7243      7244      7240      7243      7245      7240      7243      7246
      7244      7243      7245      7244      7243      7246      7245      7243      7246
      7243      7246      7247      7243      7246      7248      7243      7246      7249
      7247      7246      7248      7247      7246      7249      7248      7246      7249
      7251      7250      7254      7251      7250      7258      7251      7250      7262
      7254      7250      7258      7254      7250      7262      7258      7250      7262
      7250      7251      7252      7250      7251      7253      7250      7251      7266
      7252      7251      7253      7252      7251      7266      7253      7251      7266
      7250      7254      7255      7250      7254      7256      7250      7254      7257
      7255      7254      7256      7255      7254      7257      7256      7254      7257
      7250      7258      7259      7250      7258      7260      7250      7258      7261
      7259      7258      7260      7259      7258      7261      7260      7258      7261
      7250      7262      7263      7250      7262      7264      7250      7262      7265
      7263      7262      7264      7263      7262      7265      7264      7262      7265
      7251      7266      7267      7251      7266      7268      7251      7266      7272
      7267      7266      7268      7267      7266      7272      7268      7266      7272
      7270      7269      7271      7270      7269      7272      7270      7269      7273
      7271      7269      7272      7271      7269      7273      7272      7269      7273
      7266      7272      7269      7269      7273      7274      7273      7274      7275
      7273      7274      7276      7273      7274      7277      7275      7274      7276
      7275      7274      7277      7276      7274      7277      7274      7277      7278
      7274      7277      7279      7274      7277      7285      7278      7277      7279
      7278      7277      7285      7279      7277      7285      7277      7279      7280
      7279      7280      7281      7279      7280      7282      7281      7280      7282
      7280      7282      7283      7280      7282      7284      7280      7282      7294
      7283      7282      7284      7283      7282      7294      7284      7282      7294
      7277      7285      7286      7277      7285      7287      7277      7285      7288
      7286      7285      7287      7286      7285      7288      7287      7285      7288
      7285      7288      7289      7288      7289      7290      7288      7289      7291
      7290      7289      7291      7289      7291      7292      7289      7291      7293
      7289      7291      7341      7292      7291      7293      7292      7291      7341
      7293      7291      7341      7282      7294      7295      7282      7294      7296
      7282      7294      7297      7295      7294      7296      7295      7294      7297
      7296      7294      7297      7294      7297      7298      7294      7297      7299
      7294      7297      7300      7298      7297      7299      7298      7297      7300
      7299      7297      7300      7297      7300      7301      7297      7300      7302
      7297      7300      7303      7301      7300      7302      7301      7300      7303
      7302      7300      7303      7300      7303      7304      7300      7303      7305
      7300      7303      7306      7304      7303      7305      7304      7303      7306
      7305      7303      7306      7303      7306      7307      7303      7306      7308
      7303      7306      7309      7307      7306      7308      7307      7306      7309
      7308      7306      7309      7306      7309      7310      7306      7309      7311
      7306      7309      7312      7310      7309      7311      7310      7309      7312
      7311      7309      7312      7309      7312      7313      7309      7312      7314
      7313      7312      7314      7312      7314      7315      7312      7314      7316
      7315      7314      7316      7314      7316      7317      7314      7316      7318
      7314      7316      7319      7317      7316      7318      7317      7316      7319
      7318      7316      7319      7316      7319      7320      7316      7319      7321
      7316      7319      7322      7320      7319      7321      7320      7319      7322
      7321      7319      7322      7319      7322      7323      7319      7322      7324
      7319      7322      7325      7323      7322      7324      7323      7322      7325
      7324      7322      7325      7322      7325      7326      7322      7325      7327
      7322      7325      7328      7326      7325      7327      7326      7325      7328
      7327      7325      7328      7325      7328      7329      7325      7328      7330
      7325      7328      7331      7329      7328      7330      7329      7328      7331
      7330      7328      7331      7328      7331      7332      7328      7331      7333
      7328      7331      7334      7332      7331      7333      7332      7331      7334
      7333      7331      7334      7331      7334      7335      7331      7334      7336
      7331      7334      7337      7335      7334      7336      7335      7334      7337
      7336      7334      7337      7334      7337      7338      7334      7337      7339
      7334      7337      7340      7338      7337      7339      7338      7337      7340
      7339      7337      7340      7291      7341      7342      7291      7341      7343
      7291      7341      7344      7342      7341      7343      7342      7341      7344
      7343      7341      7344      7341      7344      7345      7341      7344      7346
      7341      7344      7347      7345      7344      7346      7345      7344      7347
      7346      7344      7347      7344      7347      7348      7344      7347      7349
      7344      7347      7350      7348      7347      7349      7348      7347      7350
      7349      7347      7350      7347      7350      7351      7347      7350      7352
      7347      7350      7353      7351      7350      7352      7351      7350      7353
      7352      7350      7353      7350      7353      7354      7350      7353      7355
      7350      7353      7356      7354      7353      7355      7354      7353      7356
      7355      7353      7356      7353      7356      7357      7353      7356      7358
      7353      7356      7359      7357      7356      7358      7357      7356      7359
      7358      7356      7359      7356      7359      7360      7356      7359      7361
      7356      7359      7362      7360      7359      7361      7360      7359      7362
      7361      7359      7362      7359      7362      7363      7359      7362      7364
      7359      7362      7365      7363      7362      7364      7363      7362      7365
      7364      7362      7365      7362      7365      7366      7362      7365      7367
      7362      7365      7368      7366      7365      7367      7366      7365      7368
      7367      7365      7368      7365      7368      7369      7365      7368      7370
      7365      7368      7371      7369      7368      7370      7369      7368      7371
      7370      7368      7371      7368      7371      7372      7368      7371      7373
      7368      7371      7374      7372      7371      7373      7372      7371      7374
      7373      7371      7374      7371      7374      7375      7371      7374      7376
      7371      7374      7377      7375      7374      7376      7375      7374      7377
      7376      7374      7377      7374      7377      7378      7374      7377      7379
      7374      7377      7380      7378      7377      7379      7378      7377      7380
      7379      7377      7380      7377      7380      7381      7377      7380      7382
      7377      7380      7383      7381      7380      7382      7381      7380      7383
      7382      7380      7383      7385      7384      7386      7385      7384      7387
      7385      7384      7388      7386      7384      7387      7386      7384      7388
      7387      7384      7388      7384      7388      7389      7384      7388      7390
      7384      7388      7393      7389      7388      7390      7389      7388      7393
      7390      7388      7393      7388      7390      7391      7388      7390      7392
      7391      7390      7392      7388      7393      7394      7388      7393      7395
      7388      7393      7399      7394      7393      7395      7394      7393      7399
      7395      7393      7399      7397      7396      7398      7397      7396      7399
      7397      7396      7400      7398      7396      7399      7398      7396      7400
      7399      7396      7400      7393      7399      7396      7396      7400      7401
      7400      7401      7402      7400      7401      7403      7400      7401      7404
      7402      7401      7403      7402      7401      7404      7403      7401      7404
      7401      7404      7405      7401      7404      7406      7401      7404      7412
      7405      7404      7406      7405      7404      7412      7406      7404      7412
      7404      7406      7407      7406      7407      7408      7406      7407      7409
      7408      7407      7409      7407      7409      7410      7407      7409      7411
      7407      7409      7421      7410      7409      7411      7410      7409      7421
      7411      7409      7421      7404      7412      7413      7404      7412      7414
      7404      7412      7415      7413      7412      7414      7413      7412      7415
      7414      7412      7415      7412      7415      7416      7415      7416      7417
      7415      7416      7418      7417      7416      7418      7416      7418      7419
      7416      7418      7420      7416      7418      7468      7419      7418      7420
      7419      7418      7468      7420      7418      7468      7409      7421      7422
      7409      7421      7423      7409      7421      7424      7422      7421      7423
      7422      7421      7424      7423      7421      7424      7421      7424      7425
      7421      7424      7426      7421      7424      7427      7425      7424      7426
      7425      7424      7427      7426      7424      7427      7424      7427      7428
      7424      7427      7429      7424      7427      7430      7428      7427      7429
      7428      7427      7430      7429      7427      7430      7427      7430      7431
      7427      7430      7432      7427      7430      7433      7431      7430      7432
      7431      7430      7433      7432      7430      7433      7430      7433      7434
      7430      7433      7435      7430      7433      7436      7434      7433      7435
      7434      7433      7436      7435      7433      7436      7433      7436      7437
      7433      7436      7438      7433      7436      7439      7437      7436      7438
      7437      7436      7439      7438      7436      7439      7436      7439      7440
      7436      7439      7441      7440      7439      7441      7439      7441      7442
      7439      7441      7443      7442      7441      7443      7441      7443      7444
      7441      7443      7445      7441      7443      7446      7444      7443      7445
      7444      7443      7446      7445      7443      7446      7443      7446      7447
      7443      7446      7448      7443      7446      7449      7447      7446      7448
      7447      7446      7449      7448      7446      7449      7446      7449      7450
      7446      7449      7451      7446      7449      7452      7450      7449      7451
      7450      7449      7452      7451      7449      7452      7449      7452      7453
      7449      7452      7454      7449      7452      7455      7453      7452      7454
      7453      7452      7455      7454      7452      7455      7452      7455      7456
      7452      7455      7457      7452      7455      7458      7456      7455      7457
      7456      7455      7458      7457      7455      7458      7455      7458      7459
      7455      7458      7460      7455      7458      7461      7459      7458      7460
      7459      7458      7461      7460      7458      7461      7458      7461      7462
      7458      7461      7463      7458      7461      7464      7462      7461      7463
      7462      7461      7464      7463      7461      7464      7461      7464      7465
      7461      7464      7466      7461      7464      7467      7465      7464      7466
      7465      7464      7467      7466      7464      7467      7418      7468      7469
      7418      7468      7470      7418      7468      7471      7469      7468      7470
      7469      7468      7471      7470      7468      7471      7468      7471      7472
      7468      7471      7473      7468      7471      7474      7472      7471      7473
      7472      7471      7474      7473      7471      7474      7471      7474      7475
      7471      7474      7476      7471      7474      7477      7475      7474      7476
      7475      7474      7477      7476      7474      7477      7474      7477      7478
      7474      7477      7479      7474      7477      7480      7478      7477      7479
      7478      7477      7480      7479      7477      7480      7477      7480      7481
      7477      7480      7482      7477      7480      7483      7481      7480      7482
      7481      7480      7483      7482      7480      7483      7480      7483      7484
      7480      7483      7485      7480      7483      7486      7484      7483      7485
      7484      7483      7486      7485      7483      7486      7483      7486      7487
      7483      7486      7488      7483      7486      7489      7487      7486      7488
      7487      7486      7489      7488      7486      7489      7486      7489      7490
      7486      7489      7491      7486      7489      7492      7490      7489      7491
      7490      7489      7492      7491      7489      7492      7489      7492      7493
      7489      7492      7494      7489      7492      7495      7493      7492      7494
      7493      7492      7495      7494      7492      7495      7492      7495      7496
      7492      7495      7497      7492      7495      7498      7496      7495      7497
      7496      7495      7498      7497      7495      7498      7495      7498      7499
      7495      7498      7500      7495      7498      7501      7499      7498      7500
      7499      7498      7501      7500      7498      7501      7498      7501      7502
      7498      7501      7503      7498      7501      7504      7502      7501      7503
      7502      7501      7504      7503      7501      7504      7501      7504      7505
      7501      7504      7506      7501      7504      7507      7505      7504      7506
      7505      7504      7507      7506      7504      7507      7504      7507      7508
      7504      7507      7509      7504      7507      7510      7508      7507      7509
      7508      7507      7510      7509      7507      7510      7512      7511      7515
      7512      7511      7519      7512      7511      7523      7515      7511      7519
      7515      7511      7523      7519      7511      7523      7511      7512      7513
      7511      7512      7514      7511      7512      7527      7513      7512      7514
      7513      7512      7527      7514      7512      7527      7511      7515      7516
      7511      7515      7517      7511      7515      7518      7516      7515      7517
      7516      7515      7518      7517      7515      7518      7511      7519      7520
      7511      7519      7521      7511      7519      7522      7520      7519      7521
      7520      7519      7522      7521      7519      7522      7511      7523      7524
      7511      7523      7525      7511      7523      7526      7524      7523      7525
      7524      7523      7526      7525      7523      7526      7512      7527      7528
      7512      7527      7529      7512      7527      7533      7528      7527      7529
      7528      7527      7533      7529      7527      7533      7531      7530      7532
      7531      7530      7533      7531      7530      7534      7532      7530      7533
      7532      7530      7534      7533      7530      7534      7527      7533      7530
      7530      7534      7535      7534      7535      7536      7534      7535      7537
      7534      7535      7538      7536      7535      7537      7536      7535      7538
      7537      7535      7538      7535      7538      7539      7535      7538      7540
      7535      7538      7546      7539      7538      7540      7539      7538      7546
      7540      7538      7546      7538      7540      7541      7540      7541      7542
      7540      7541      7543      7542      7541      7543      7541      7543      7544
      7541      7543      7545      7541      7543      7555      7544      7543      7545
      7544      7543      7555      7545      7543      7555      7538      7546      7547
      7538      7546      7548      7538      7546      7549      7547      7546      7548
      7547      7546      7549      7548      7546      7549      7546      7549      7550
      7549      7550      7551      7549      7550      7552      7551      7550      7552
      7550      7552      7553      7550      7552      7554      7550      7552      7602
      7553      7552      7554      7553      7552      7602      7554      7552      7602
      7543      7555      7556      7543      7555      7557      7543      7555      7558
      7556      7555      7557      7556      7555      7558      7557      7555      7558
      7555      7558      7559      7555      7558      7560      7555      7558      7561
      7559      7558      7560      7559      7558      7561      7560      7558      7561
      7558      7561      7562      7558      7561      7563      7558      7561      7564
      7562      7561      7563      7562      7561      7564      7563      7561      7564
      7561      7564      7565      7561      7564      7566      7561      7564      7567
      7565      7564      7566      7565      7564      7567      7566      7564      7567
      7564      7567      7568      7564      7567      7569      7564      7567      7570
      7568      7567      7569      7568      7567      7570      7569      7567      7570
      7567      7570      7571      7567      7570      7572      7567      7570      7573
      7571      7570      7572      7571      7570      7573      7572      7570      7573
      7570      7573      7574      7570      7573      7575      7574      7573      7575
      7573      7575      7576      7573      7575      7577      7576      7575      7577
      7575      7577      7578      7575      7577      7579      7575      7577      7580
      7578      7577      7579      7578      7577      7580      7579      7577      7580
      7577      7580      7581      7577      7580      7582      7577      7580      7583
      7581      7580      7582      7581      7580      7583      7582      7580      7583
      7580      7583      7584      7580      7583      7585      7580      7583      7586
      7584      7583      7585      7584      7583      7586      7585      7583      7586
      7583      7586      7587      7583      7586      7588      7583      7586      7589
      7587      7586      7588      7587      7586      7589      7588      7586      7589
      7586      7589      7590      7586      7589      7591      7586      7589      7592
      7590      7589      7591      7590      7589      7592      7591      7589      7592
      7589      7592      7593      7589      7592      7594      7589      7592      7595
      7593      7592      7594      7593      7592      7595      7594      7592      7595
      7592      7595      7596      7592      7595      7597      7592      7595      7598
      7596      7595      7597      7596      7595      7598      7597      7595      7598
      7595      7598      7599      7595      7598      7600      7595      7598      7601
      7599      7598      7600      7599      7598      7601      7600      7598      7601
      7552      7602      7603      7552      7602      7604      7552      7602      7605
      7603      7602      7604      7603      7602      7605      7604      7602      7605
      7602      7605      7606      7602      7605      7607      7602      7605      7608
      7606      7605      7607      7606      7605      7608      7607      7605      7608
      7605      7608      7609      7605      7608      7610      7605      7608      7611
      7609      7608      7610      7609      7608      7611      7610      7608      7611
      7608      7611      7612      7608      7611      7613      7608      7611      7614
      7612      7611      7613      7612      7611      7614      7613      7611      7614
      7611      7614      7615      7611      7614      7616      7611      7614      7617
      7615      7614      7616      7615      7614      7617      7616      7614      7617
      7614      7617      7618      7614      7617      7619      7614      7617      7620
      7618      7617      7619      7618      7617      7620      7619      7617      7620
      7617      7620      7621      7617      7620      7622      7617      7620      7623
      7621      7620      7622      7621      7620      7623      7622      7620      7623
      7620      7623      7624      7620      7623      7625      7620      7623      7626
      7624      7623      7625      7624      7623      7626      7625      7623      7626
      7623      7626      7627      7623      7626      7628      7623      7626      7629
      7627      7626      7628      7627      7626      7629      7628      7626      7629
      7626      7629      7630      7626      7629      7631      7626      7629      7632
      7630      7629      7631      7630      7629      7632      7631      7629      7632
      7629      7632      7633      7629      7632      7634      7629      7632      7635
      7633      7632      7634      7633      7632      7635      7634      7632      7635
      7632      7635      7636      7632      7635      7637      7632      7635      7638
      7636      7635      7637      7636      7635      7638      7637      7635      7638
      7635      7638      7639      7635      7638      7640      7635      7638      7641
      7639      7638      7640      7639      7638      7641      7640      7638      7641
      7638      7641      7642      7638      7641      7643      7638      7641      7644
      7642      7641      7643      7642      7641      7644      7643      7641      7644
      7646      7645      7649      7646      7645      7653      7646      7645      7657
      7649      7645      7653      7649      7645      7657      7653      7645      7657
      7645      7646      7647      7645      7646      7648      7645      7646      7661
      7647      7646      7648      7647      7646      7661      7648      7646      7661
      7645      7649      7650      7645      7649      7651      7645      7649      7652
      7650      7649      7651      7650      7649      7652      7651      7649      7652
      7645      7653      7654      7645      7653      7655      7645      7653      7656
      7654      7653      7655      7654      7653      7656      7655      7653      7656
      7645      7657      7658      7645      7657      7659      7645      7657      7660
      7658      7657      7659      7658      7657      7660      7659      7657      7660
      7646      7661      7662      7646      7661      7663      7646      7661      7667
      7662      7661      7663      7662      7661      7667      7663      7661      7667
      7665      7664      7666      7665      7664      7667      7665      7664      7668
      7666      7664      7667      7666      7664      7668      7667      7664      7668
      7661      7667      7664      7664      7668      7669      7668      7669      7670
      7668      7669      7671      7668      7669      7672      7670      7669      7671
      7670      7669      7672      7671      7669      7672      7669      7672      7673
      7669      7672      7674      7669      7672      7680      7673      7672      7674
      7673      7672      7680      7674      7672      7680      7672      7674      7675
      7674      7675      7676      7674      7675      7677      7676      7675      7677
      7675      7677      7678      7675      7677      7679      7675      7677      7689
      7678      7677      7679      7678      7677      7689      7679      7677      7689
      7672      7680      7681      7672      7680      7682      7672      7680      7683
      7681      7680      7682      7681      7680      7683      7682      7680      7683
      7680      7683      7684      7683      7684      7685      7683      7684      7686
      7685      7684      7686      7684      7686      7687      7684      7686      7688
      7684      7686      7736      7687      7686      7688      7687      7686      7736
      7688      7686      7736      7677      7689      7690      7677      7689      7691
      7677      7689      7692      7690      7689      7691      7690      7689      7692
      7691      7689      7692      7689      7692      7693      7689      7692      7694
      7689      7692      7695      7693      7692      7694      7693      7692      7695
      7694      7692      7695      7692      7695      7696      7692      7695      7697
      7692      7695      7698      7696      7695      7697      7696      7695      7698
      7697      7695      7698      7695      7698      7699      7695      7698      7700
      7695      7698      7701      7699      7698      7700      7699      7698      7701
      7700      7698      7701      7698      7701      7702      7698      7701      7703
      7698      7701      7704      7702      7701      7703      7702      7701      7704
      7703      7701      7704      7701      7704      7705      7701      7704      7706
      7701      7704      7707      7705      7704      7706      7705      7704      7707
      7706      7704      7707      7704      7707      7708      7704      7707      7709
      7708      7707      7709      7707      7709      7710      7707      7709      7711
      7710      7709      7711      7709      7711      7712      7709      7711      7713
      7709      7711      7714      7712      7711      7713      7712      7711      7714
      7713      7711      7714      7711      7714      7715      7711      7714      7716
      7711      7714      7717      7715      7714      7716      7715      7714      7717
      7716      7714      7717      7714      7717      7718      7714      7717      7719
      7714      7717      7720      7718      7717      7719      7718      7717      7720
      7719      7717      7720      7717      7720      7721      7717      7720      7722
      7717      7720      7723      7721      7720      7722      7721      7720      7723
      7722      7720      7723      7720      7723      7724      7720      7723      7725
      7720      7723      7726      7724      7723      7725      7724      7723      7726
      7725      7723      7726      7723      7726      7727      7723      7726      7728
      7723      7726      7729      7727      7726      7728      7727      7726      7729
      7728      7726      7729      7726      7729      7730      7726      7729      7731
      7726      7729      7732      7730      7729      7731      7730      7729      7732
      7731      7729      7732      7729      7732      7733      7729      7732      7734
      7729      7732      7735      7733      7732      7734      7733      7732      7735
      7734      7732      7735      7686      7736      7737      7686      7736      7738
      7686      7736      7739      7737      7736      7738      7737      7736      7739
      7738      7736      7739      7736      7739      7740      7736      7739      7741
      7736      7739      7742      7740      7739      7741      7740      7739      7742
      7741      7739      7742      7739      7742      7743      7739      7742      7744
      7739      7742      7745      7743      7742      7744      7743      7742      7745
      7744      7742      7745      7742      7745      7746      7742      7745      7747
      7742      7745      7748      7746      7745      7747      7746      7745      7748
      7747      7745      7748      7745      7748      7749      7745      7748      7750
      7745      7748      7751      7749      7748      7750      7749      7748      7751
      7750      7748      7751      7748      7751      7752      7748      7751      7753
      7748      7751      7754      7752      7751      7753      7752      7751      7754
      7753      7751      7754      7751      7754      7755      7751      7754      7756
      7751      7754      7757      7755      7754      7756      7755      7754      7757
      7756      7754      7757      7754      7757      7758      7754      7757      7759
      7754      7757      7760      7758      7757      7759      7758      7757      7760
      7759      7757      7760      7757      7760      7761      7757      7760      7762
      7757      7760      7763      7761      7760      7762      7761      7760      7763
      7762      7760      7763      7760      7763      7764      7760      7763      7765
      7760      7763      7766      7764      7763      7765      7764      7763      7766
      7765      7763      7766      7763      7766      7767      7763      7766      7768
      7763      7766      7769      7767      7766      7768      7767      7766      7769
      7768      7766      7769      7766      7769      7770      7766      7769      7771
      7766      7769      7772      7770      7769      7771      7770      7769      7772
      7771      7769      7772      7769      7772      7773      7769      7772      7774
      7769      7772      7775      7773      7772      7774      7773      7772      7775
      7774      7772      7775      7772      7775      7776      7772      7775      7777
      7772      7775      7778      7776      7775      7777      7776      7775      7778
      7777      7775      7778      7780      7779      7783      7780      7779      7787
      7780      7779      7791      7783      7779      7787      7783      7779      7791
      7787      7779      7791      7779      7780      7781      7779      7780      7782
      7779      7780      7795      7781      7780      7782      7781      7780      7795
      7782      7780      7795      7779      7783      7784      7779      7783      7785
      7779      7783      7786      7784      7783      7785      7784      7783      7786
      7785      7783      7786      7779      7787      7788      7779      7787      7789
      7779      7787      7790      7788      7787      7789      7788      7787      7790
      7789      7787      7790      7779      7791      7792      7779      7791      7793
      7779      7791      7794      7792      7791      7793      7792      7791      7794
      7793      7791      7794      7780      7795      7796      7780      7795      7797
      7780      7795      7801      7796      7795      7797      7796      7795      7801
      7797      7795      7801      7799      7798      7800      7799      7798      7801
      7799      7798      7802      7800      7798      7801      7800      7798      7802
      7801      7798      7802      7795      7801      7798      7798      7802      7803
      7802      7803      7804      7802      7803      7805      7802      7803      7806
      7804      7803      7805      7804      7803      7806      7805      7803      7806
      7803      7806      7807      7803      7806      7808      7803      7806      7814
      7807      7806      7808      7807      7806      7814      7808      7806      7814
      7806      7808      7809      7808      7809      7810      7808      7809      7811
      7810      7809      7811      7809      7811      7812      7809      7811      7813
      7809      7811      7823      7812      7811      7813      7812      7811      7823
      7813      7811      7823      7806      7814      7815      7806      7814      7816
      7806      7814      7817      7815      7814      7816      7815      7814      7817
      7816      7814      7817      7814      7817      7818      7817      7818      7819
      7817      7818      7820      7819      7818      7820      7818      7820      7821
      7818      7820      7822      7818      7820      7870      7821      7820      7822
      7821      7820      7870      7822      7820      7870      7811      7823      7824
      7811      7823      7825      7811      7823      7826      7824      7823      7825
      7824      7823      7826      7825      7823      7826      7823      7826      7827
      7823      7826      7828      7823      7826      7829      7827      7826      7828
      7827      7826      7829      7828      7826      7829      7826      7829      7830
      7826      7829      7831      7826      7829      7832      7830      7829      7831
      7830      7829      7832      7831      7829      7832      7829      7832      7833
      7829      7832      7834      7829      7832      7835      7833      7832      7834
      7833      7832      7835      7834      7832      7835      7832      7835      7836
      7832      7835      7837      7832      7835      7838      7836      7835      7837
      7836      7835      7838      7837      7835      7838      7835      7838      7839
      7835      7838      7840      7835      7838      7841      7839      7838      7840
      7839      7838      7841      7840      7838      7841      7838      7841      7842
      7838      7841      7843      7842      7841      7843      7841      7843      7844
      7841      7843      7845      7844      7843      7845      7843      7845      7846
      7843      7845      7847      7843      7845      7848      7846      7845      7847
      7846      7845      7848      7847      7845      7848      7845      7848      7849
      7845      7848      7850      7845      7848      7851      7849      7848      7850
      7849      7848      7851      7850      7848      7851      7848      7851      7852
      7848      7851      7853      7848      7851      7854      7852      7851      7853
      7852      7851      7854      7853      7851      7854      7851      7854      7855
      7851      7854      7856      7851      7854      7857      7855      7854      7856
      7855      7854      7857      7856      7854      7857      7854      7857      7858
      7854      7857      7859      7854      7857      7860      7858      7857      7859
      7858      7857      7860      7859      7857      7860      7857      7860      7861
      7857      7860      7862      7857      7860      7863      7861      7860      7862
      7861      7860      7863      7862      7860      7863      7860      7863      7864
      7860      7863      7865      7860      7863      7866      7864      7863      7865
      7864      7863      7866      7865      7863      7866      7863      7866      7867
      7863      7866      7868      7863      7866      7869      7867      7866      7868
      7867      7866      7869      7868      7866      7869      7820      7870      7871
      7820      7870      7872      7820      7870      7873      7871      7870      7872
      7871      7870      7873      7872      7870      7873      7870      7873      7874
      7870      7873      7875      7870      7873      7876      7874      7873      7875
      7874      7873      7876      7875      7873      7876      7873      7876      7877
      7873      7876      7878      7873      7876      7879      7877      7876      7878
      7877      7876      7879      7878      7876      7879      7876      7879      7880
      7876      7879      7881      7876      7879      7882      7880      7879      7881
      7880      7879      7882      7881      7879      7882      7879      7882      7883
      7879      7882      7884      7879      7882      7885      7883      7882      7884
      7883      7882      7885      7884      7882      7885      7882      7885      7886
      7882      7885      7887      7882      7885      7888      7886      7885      7887
      7886      7885      7888      7887      7885      7888      7885      7888      7889
      7885      7888      7890      7885      7888      7891      7889      7888      7890
      7889      7888      7891      7890      7888      7891      7888      7891      7892
      7888      7891      7893      7888      7891      7894      7892      7891      7893
      7892      7891      7894      7893      7891      7894      7891      7894      7895
      7891      7894      7896      7891      7894      7897      7895      7894      7896
      7895      7894      7897      7896      7894      7897      7894      7897      7898
      7894      7897      7899      7894      7897      7900      7898      7897      7899
      7898      7897      7900      7899      7897      7900      7897      7900      7901
      7897      7900      7902      7897      7900      7903      7901      7900      7902
      7901      7900      7903      7902      7900      7903      7900      7903      7904
      7900      7903      7905      7900      7903      7906      7904      7903      7905
      7904      7903      7906      7905      7903      7906      7903      7906      7907
      7903      7906      7908      7903      7906      7909      7907      7906      7908
      7907      7906      7909      7908      7906      7909      7906      7909      7910
      7906      7909      7911      7906      7909      7912      7910      7909      7911
      7910      7909      7912      7911      7909      7912      7914      7913      7917
      7914      7913      7921      7914      7913      7925      7917      7913      7921
      7917      7913      7925      7921      7913      7925      7913      7914      7915
      7913      7914      7916      7913      7914      7929      7915      7914      7916
      7915      7914      7929      7916      7914      7929      7913      7917      7918
      7913      7917      7919      7913      7917      7920      7918      7917      7919
      7918      7917      7920      7919      7917      7920      7913      7921      7922
      7913      7921      7923      7913      7921      7924      7922      7921      7923
      7922      7921      7924      7923      7921      7924      7913      7925      7926
      7913      7925      7927      7913      7925      7928      7926      7925      7927
      7926      7925      7928      7927      7925      7928      7914      7929      7930
      7914      7929      7931      7914      7929      7935      7930      7929      7931
      7930      7929      7935      7931      7929      7935      7933      7932      7934
      7933      7932      7935      7933      7932      7936      7934      7932      7935
      7934      7932      7936      7935      7932      7936      7929      7935      7932
      7932      7936      7937      7936      7937      7938      7936      7937      7939
      7936      7937      7940      7938      7937      7939      7938      7937      7940
      7939      7937      7940      7937      7940      7941      7937      7940      7942
      7937      7940      7948      7941      7940      7942      7941      7940      7948
      7942      7940      7948      7940      7942      7943      7942      7943      7944
      7942      7943      7945      7944      7943      7945      7943      7945      7946
      7943      7945      7947      7943      7945      7957      7946      7945      7947
      7946      7945      7957      7947      7945      7957      7940      7948      7949
      7940      7948      7950      7940      7948      7951      7949      7948      7950
      7949      7948      7951      7950      7948      7951      7948      7951      7952
      7951      7952      7953      7951      7952      7954      7953      7952      7954
      7952      7954      7955      7952      7954      7956      7952      7954      8004
      7955      7954      7956      7955      7954      8004      7956      7954      8004
      7945      7957      7958      7945      7957      7959      7945      7957      7960
      7958      7957      7959      7958      7957      7960      7959      7957      7960
      7957      7960      7961      7957      7960      7962      7957      7960      7963
      7961      7960      7962      7961      7960      7963      7962      7960      7963
      7960      7963      7964      7960      7963      7965      7960      7963      7966
      7964      7963      7965      7964      7963      7966      7965      7963      7966
      7963      7966      7967      7963      7966      7968      7963      7966      7969
      7967      7966      7968      7967      7966      7969      7968      7966      7969
      7966      7969      7970      7966      7969      7971      7966      7969      7972
      7970      7969      7971      7970      7969      7972      7971      7969      7972
      7969      7972      7973      7969      7972      7974      7969      7972      7975
      7973      7972      7974      7973      7972      7975      7974      7972      7975
      7972      7975      7976      7972      7975      7977      7976      7975      7977
      7975      7977      7978      7975      7977      7979      7978      7977      7979
      7977      7979      7980      7977      7979      7981      7977      7979      7982
      7980      7979      7981      7980      7979      7982      7981      7979      7982
      7979      7982      7983      7979      7982      7984      7979      7982      7985
      7983      7982      7984      7983      7982      7985      7984      7982      7985
      7982      7985      7986      7982      7985      7987      7982      7985      7988
      7986      7985      7987      7986      7985      7988      7987      7985      7988
      7985      7988      7989      7985      7988      7990      7985      7988      7991
      7989      7988      7990      7989      7988      7991      7990      7988      7991
      7988      7991      7992      7988      7991      7993      7988      7991      7994
      7992      7991      7993      7992      7991      7994      7993      7991      7994
      7991      7994      7995      7991      7994      7996      7991      7994      7997
      7995      7994      7996      7995      7994      7997      7996      7994      7997
      7994      7997      7998      7994      7997      7999      7994      7997      8000
      7998      7997      7999      7998      7997      8000      7999      7997      8000
      7997      8000      8001      7997      8000      8002      7997      8000      8003
      8001      8000      8002      8001      8000      8003      8002      8000      8003
      7954      8004      8005      7954      8004      8006      7954      8004      8007
      8005      8004      8006      8005      8004      8007      8006      8004      8007
      8004      8007      8008      8004      8007      8009      8004      8007      8010
      8008      8007      8009      8008      8007      8010      8009      8007      8010
      8007      8010      8011      8007      8010      8012      8007      8010      8013
      8011      8010      8012      8011      8010      8013      8012      8010      8013
      8010      8013      8014      8010      8013      8015      8010      8013      8016
      8014      8013      8015      8014      8013      8016      8015      8013      8016
      8013      8016      8017      8013      8016      8018      8013      8016      8019
      8017      8016      8018      8017      8016      8019      8018      8016      8019
      8016      8019      8020      8016      8019      8021      8016      8019      8022
      8020      8019      8021      8020      8019      8022      8021      8019      8022
      8019      8022      8023      8019      8022      8024      8019      8022      8025
      8023      8022      8024      8023      8022      8025      8024      8022      8025
      8022      8025      8026      8022      8025      8027      8022      8025      8028
      8026      8025      8027      8026      8025      8028      8027      8025      8028
      8025      8028      8029      8025      8028      8030      8025      8028      8031
      8029      8028      8030      8029      8028      8031      8030      8028      8031
      8028      8031      8032      8028      8031      8033      8028      8031      8034
      8032      8031      8033      8032      8031      8034      8033      8031      8034
      8031      8034      8035      8031      8034      8036      8031      8034      8037
      8035      8034      8036      8035      8034      8037      8036      8034      8037
      8034      8037      8038      8034      8037      8039      8034      8037      8040
      8038      8037      8039      8038      8037      8040      8039      8037      8040
      8037      8040      8041      8037      8040      8042      8037      8040      8043
      8041      8040      8042      8041      8040      8043      8042      8040      8043
      8040      8043      8044      8040      8043      8045      8040      8043      8046
      8044      8043      8045      8044      8043      8046      8045      8043      8046
      8048      8047      8051      8048      8047      8055      8048      8047      8059
      8051      8047      8055      8051      8047      8059      8055      8047      8059
      8047      8048      8049      8047      8048      8050      8047      8048      8063
      8049      8048      8050      8049      8048      8063      8050      8048      8063
      8047      8051      8052      8047      8051      8053      8047      8051      8054
      8052      8051      8053      8052      8051      8054      8053      8051      8054
      8047      8055      8056      8047      8055      8057      8047      8055      8058
      8056      8055      8057      8056      8055      8058      8057      8055      8058
      8047      8059      8060      8047      8059      8061      8047      8059      8062
      8060      8059      8061      8060      8059      8062      8061      8059      8062
      8048      8063      8064      8048      8063      8065      8048      8063      8069
      8064      8063      8065      8064      8063      8069      8065      8063      8069
      8067      8066      8068      8067      8066      8069      8067      8066      8070
      8068      8066      8069      8068      8066      8070      8069      8066      8070
      8063      8069      8066      8066      8070      8071      8070      8071      8072
      8070      8071      8073      8070      8071      8074      8072      8071      8073
      8072      8071      8074      8073      8071      8074      8071      8074      8075
      8071      8074      8076      8071      8074      8082      8075      8074      8076
      8075      8074      8082      8076      8074      8082      8074      8076      8077
      8076      8077      8078      8076      8077      8079      8078      8077      8079
      8077      8079      8080      8077      8079      8081      8077      8079      8091
      8080      8079      8081      8080      8079      8091      8081      8079      8091
      8074      8082      8083      8074      8082      8084      8074      8082      8085
      8083      8082      8084      8083      8082      8085      8084      8082      8085
      8082      8085      8086      8085      8086      8087      8085      8086      8088
      8087      8086      8088      8086      8088      8089      8086      8088      8090
      8086      8088      8138      8089      8088      8090      8089      8088      8138
      8090      8088      8138      8079      8091      8092      8079      8091      8093
      8079      8091      8094      8092      8091      8093      8092      8091      8094
      8093      8091      8094      8091      8094      8095      8091      8094      8096
      8091      8094      8097      8095      8094      8096      8095      8094      8097
      8096      8094      8097      8094      8097      8098      8094      8097      8099
      8094      8097      8100      8098      8097      8099      8098      8097      8100
      8099      8097      8100      8097      8100      8101      8097      8100      8102
      8097      8100      8103      8101      8100      8102      8101      8100      8103
      8102      8100      8103      8100      8103      8104      8100      8103      8105
      8100      8103      8106      8104      8103      8105      8104      8103      8106
      8105      8103      8106      8103      8106      8107      8103      8106      8108
      8103      8106      8109      8107      8106      8108      8107      8106      8109
      8108      8106      8109      8106      8109      8110      8106      8109      8111
      8110      8109      8111      8109      8111      8112      8109      8111      8113
      8112      8111      8113      8111      8113      8114      8111      8113      8115
      8111      8113      8116      8114      8113      8115      8114      8113      8116
      8115      8113      8116      8113      8116      8117      8113      8116      8118
      8113      8116      8119      8117      8116      8118      8117      8116      8119
      8118      8116      8119      8116      8119      8120      8116      8119      8121
      8116      8119      8122      8120      8119      8121      8120      8119      8122
      8121      8119      8122      8119      8122      8123      8119      8122      8124
      8119      8122      8125      8123      8122      8124      8123      8122      8125
      8124      8122      8125      8122      8125      8126      8122      8125      8127
      8122      8125      8128      8126      8125      8127      8126      8125      8128
      8127      8125      8128      8125      8128      8129      8125      8128      8130
      8125      8128      8131      8129      8128      8130      8129      8128      8131
      8130      8128      8131      8128      8131      8132      8128      8131      8133
      8128      8131      8134      8132      8131      8133      8132      8131      8134
      8133      8131      8134      8131      8134      8135      8131      8134      8136
      8131      8134      8137      8135      8134      8136      8135      8134      8137
      8136      8134      8137      8088      8138      8139      8088      8138      8140
      8088      8138      8141      8139      8138      8140      8139      8138      8141
      8140      8138      8141      8138      8141      8142      8138      8141      8143
      8138      8141      8144      8142      8141      8143      8142      8141      8144
      8143      8141      8144      8141      8144      8145      8141      8144      8146
      8141      8144      8147      8145      8144      8146      8145      8144      8147
      8146      8144      8147      8144      8147      8148      8144      8147      8149
      8144      8147      8150      8148      8147      8149      8148      8147      8150
      8149      8147      8150      8147      8150      8151      8147      8150      8152
      8147      8150      8153      8151      8150      8152      8151      8150      8153
      8152      8150      8153      8150      8153      8154      8150      8153      8155
      8150      8153      8156      8154      8153      8155      8154      8153      8156
      8155      8153      8156      8153      8156      8157      8153      8156      8158
      8153      8156      8159      8157      8156      8158      8157      8156      8159
      8158      8156      8159      8156      8159      8160      8156      8159      8161
      8156      8159      8162      8160      8159      8161      8160      8159      8162
      8161      8159      8162      8159      8162      8163      8159      8162      8164
      8159      8162      8165      8163      8162      8164      8163      8162      8165
      8164      8162      8165      8162      8165      8166      8162      8165      8167
      8162      8165      8168      8166      8165      8167      8166      8165      8168
      8167      8165      8168      8165      8168      8169      8165      8168      8170
      8165      8168      8171      8169      8168      8170      8169      8168      8171
      8170      8168      8171      8168      8171      8172      8168      8171      8173
      8168      8171      8174      8172      8171      8173      8172      8171      8174
      8173      8171      8174      8171      8174      8175      8171      8174      8176
      8171      8174      8177      8175      8174      8176      8175      8174      8177
      8176      8174      8177      8174      8177      8178      8174      8177      8179
      8174      8177      8180      8178      8177      8179      8178      8177      8180
      8179      8177      8180      8182      8181      8185      8182      8181      8189
      8182      8181      8193      8185      8181      8189      8185      8181      8193
      8189      8181      8193      8181      8182      8183      8181      8182      8184
      8181      8182      8197      8183      8182      8184      8183      8182      8197
      8184      8182      8197      8181      8185      8186      8181      8185      8187
      8181      8185      8188      8186      8185      8187      8186      8185      8188
      8187      8185      8188      8181      8189      8190      8181      8189      8191
      8181      8189      8192      8190      8189      8191      8190      8189      8192
      8191      8189      8192      8181      8193      8194      8181      8193      8195
      8181      8193      8196      8194      8193      8195      8194      8193      8196
      8195      8193      8196      8182      8197      8198      8182      8197      8199
      8182      8197      8203      8198      8197      8199      8198      8197      8203
      8199      8197      8203      8201      8200      8202      8201      8200      8203
      8201      8200      8204      8202      8200      8203      8202      8200      8204
      8203      8200      8204      8197      8203      8200      8200      8204      8205
      8204      8205      8206      8204      8205      8207      8204      8205      8208
      8206      8205      8207      8206      8205      8208      8207      8205      8208
      8205      8208      8209      8205      8208      8210      8205      8208      8216
      8209      8208      8210      8209      8208      8216      8210      8208      8216
      8208      8210      8211      8210      8211      8212      8210      8211      8213
      8212      8211      8213      8211      8213      8214      8211      8213      8215
      8211      8213      8225      8214      8213      8215      8214      8213      8225
      8215      8213      8225      8208      8216      8217      8208      8216      8218
      8208      8216      8219      8217      8216      8218      8217      8216      8219
      8218      8216      8219      8216      8219      8220      8219      8220      8221
      8219      8220      8222      8221      8220      8222      8220      8222      8223
      8220      8222      8224      8220      8222      8272      8223      8222      8224
      8223      8222      8272      8224      8222      8272      8213      8225      8226
      8213      8225      8227      8213      8225      8228      8226      8225      8227
      8226      8225      8228      8227      8225      8228      8225      8228      8229
      8225      8228      8230      8225      8228      8231      8229      8228      8230
      8229      8228      8231      8230      8228      8231      8228      8231      8232
      8228      8231      8233      8228      8231      8234      8232      8231      8233
      8232      8231      8234      8233      8231      8234      8231      8234      8235
      8231      8234      8236      8231      8234      8237      8235      8234      8236
      8235      8234      8237      8236      8234      8237      8234      8237      8238
      8234      8237      8239      8234      8237      8240      8238      8237      8239
      8238      8237      8240      8239      8237      8240      8237      8240      8241
      8237      8240      8242      8237      8240      8243      8241      8240      8242
      8241      8240      8243      8242      8240      8243      8240      8243      8244
      8240      8243      8245      8244      8243      8245      8243      8245      8246
      8243      8245      8247      8246      8245      8247      8245      8247      8248
      8245      8247      8249      8245      8247      8250      8248      8247      8249
      8248      8247      8250      8249      8247      8250      8247      8250      8251
      8247      8250      8252      8247      8250      8253      8251      8250      8252
      8251      8250      8253      8252      8250      8253      8250      8253      8254
      8250      8253      8255      8250      8253      8256      8254      8253      8255
      8254      8253      8256      8255      8253      8256      8253      8256      8257
      8253      8256      8258      8253      8256      8259      8257      8256      8258
      8257      8256      8259      8258      8256      8259      8256      8259      8260
      8256      8259      8261      8256      8259      8262      8260      8259      8261
      8260      8259      8262      8261      8259      8262      8259      8262      8263
      8259      8262      8264      8259      8262      8265      8263      8262      8264
      8263      8262      8265      8264      8262      8265      8262      8265      8266
      8262      8265      8267      8262      8265      8268      8266      8265      8267
      8266      8265      8268      8267      8265      8268      8265      8268      8269
      8265      8268      8270      8265      8268      8271      8269      8268      8270
      8269      8268      8271      8270      8268      8271      8222      8272      8273
      8222      8272      8274      8222      8272      8275      8273      8272      8274
      8273      8272      8275      8274      8272      8275      8272      8275      8276
      8272      8275      8277      8272      8275      8278      8276      8275      8277
      8276      8275      8278      8277      8275      8278      8275      8278      8279
      8275      8278      8280      8275      8278      8281      8279      8278      8280
      8279      8278      8281      8280      8278      8281      8278      8281      8282
      8278      8281      8283      8278      8281      8284      8282      8281      8283
      8282      8281      8284      8283      8281      8284      8281      8284      8285
      8281      8284      8286      8281      8284      8287      8285      8284      8286
      8285      8284      8287      8286      8284      8287      8284      8287      8288
      8284      8287      8289      8284      8287      8290      8288      8287      8289
      8288      8287      8290      8289      8287      8290      8287      8290      8291
      8287      8290      8292      8287      8290      8293      8291      8290      8292
      8291      8290      8293      8292      8290      8293      8290      8293      8294
      8290      8293      8295      8290      8293      8296      8294      8293      8295
      8294      8293      8296      8295      8293      8296      8293      8296      8297
      8293      8296      8298      8293      8296      8299      8297      8296      8298
      8297      8296      8299      8298      8296      8299      8296      8299      8300
      8296      8299      8301      8296      8299      8302      8300      8299      8301
      8300      8299      8302      8301      8299      8302      8299      8302      8303
      8299      8302      8304      8299      8302      8305      8303      8302      8304
      8303      8302      8305      8304      8302      8305      8302      8305      8306
      8302      8305      8307      8302      8305      8308      8306      8305      8307
      8306      8305      8308      8307      8305      8308      8305      8308      8309
      8305      8308      8310      8305      8308      8311      8309      8308      8310
      8309      8308      8311      8310      8308      8311      8308      8311      8312
      8308      8311      8313      8308      8311      8314      8312      8311      8313
      8312      8311      8314      8313      8311      8314      8316      8315      8319
      8316      8315      8323      8316      8315      8327      8319      8315      8323
      8319      8315      8327      8323      8315      8327      8315      8316      8317
      8315      8316      8318      8315      8316      8331      8317      8316      8318
      8317      8316      8331      8318      8316      8331      8315      8319      8320
      8315      8319      8321      8315      8319      8322      8320      8319      8321
      8320      8319      8322      8321      8319      8322      8315      8323      8324
      8315      8323      8325      8315      8323      8326      8324      8323      8325
      8324      8323      8326      8325      8323      8326      8315      8327      8328
      8315      8327      8329      8315      8327      8330      8328      8327      8329
      8328      8327      8330      8329      8327      8330      8316      8331      8332
      8316      8331      8333      8316      8331      8337      8332      8331      8333
      8332      8331      8337      8333      8331      8337      8335      8334      8336
      8335      8334      8337      8335      8334      8338      8336      8334      8337
      8336      8334      8338      8337      8334      8338      8331      8337      8334
      8334      8338      8339      8338      8339      8340      8338      8339      8341
      8338      8339      8342      8340      8339      8341      8340      8339      8342
      8341      8339      8342      8339      8342      8343      8339      8342      8344
      8339      8342      8350      8343      8342      8344      8343      8342      8350
      8344      8342      8350      8342      8344      8345      8344      8345      8346
      8344      8345      8347      8346      8345      8347      8345      8347      8348
      8345      8347      8349      8345      8347      8359      8348      8347      8349
      8348      8347      8359      8349      8347      8359      8342      8350      8351
      8342      8350      8352      8342      8350      8353      8351      8350      8352
      8351      8350      8353      8352      8350      8353      8350      8353      8354
      8353      8354      8355      8353      8354      8356      8355      8354      8356
      8354      8356      8357      8354      8356      8358      8354      8356      8406
      8357      8356      8358      8357      8356      8406      8358      8356      8406
      8347      8359      8360      8347      8359      8361      8347      8359      8362
      8360      8359      8361      8360      8359      8362      8361      8359      8362
      8359      8362      8363      8359      8362      8364      8359      8362      8365
      8363      8362      8364      8363      8362      8365      8364      8362      8365
      8362      8365      8366      8362      8365      8367      8362      8365      8368
      8366      8365      8367      8366      8365      8368      8367      8365      8368
      8365      8368      8369      8365      8368      8370      8365      8368      8371
      8369      8368      8370      8369      8368      8371      8370      8368      8371
      8368      8371      8372      8368      8371      8373      8368      8371      8374
      8372      8371      8373      8372      8371      8374      8373      8371      8374
      8371      8374      8375      8371      8374      8376      8371      8374      8377
      8375      8374      8376      8375      8374      8377      8376      8374      8377
      8374      8377      8378      8374      8377      8379      8378      8377      8379
      8377      8379      8380      8377      8379      8381      8380      8379      8381
      8379      8381      8382      8379      8381      8383      8379      8381      8384
      8382      8381      8383      8382      8381      8384      8383      8381      8384
      8381      8384      8385      8381      8384      8386      8381      8384      8387
      8385      8384      8386      8385      8384      8387      8386      8384      8387
      8384      8387      8388      8384      8387      8389      8384      8387      8390
      8388      8387      8389      8388      8387      8390      8389      8387      8390
      8387      8390      8391      8387      8390      8392      8387      8390      8393
      8391      8390      8392      8391      8390      8393      8392      8390      8393
      8390      8393      8394      8390      8393      8395      8390      8393      8396
      8394      8393      8395      8394      8393      8396      8395      8393      8396
      8393      8396      8397      8393      8396      8398      8393      8396      8399
      8397      8396      8398      8397      8396      8399      8398      8396      8399
      8396      8399      8400      8396      8399      8401      8396      8399      8402
      8400      8399      8401      8400      8399      8402      8401      8399      8402
      8399      8402      8403      8399      8402      8404      8399      8402      8405
      8403      8402      8404      8403      8402      8405      8404      8402      8405
      8356      8406      8407      8356      8406      8408      8356      8406      8409
      8407      8406      8408      8407      8406      8409      8408      8406      8409
      8406      8409      8410      8406      8409      8411      8406      8409      8412
      8410      8409      8411      8410      8409      8412      8411      8409      8412
      8409      8412      8413      8409      8412      8414      8409      8412      8415
      8413      8412      8414      8413      8412      8415      8414      8412      8415
      8412      8415      8416      8412      8415      8417      8412      8415      8418
      8416      8415      8417      8416      8415      8418      8417      8415      8418
      8415      8418      8419      8415      8418      8420      8415      8418      8421
      8419      8418      8420      8419      8418      8421      8420      8418      8421
      8418      8421      8422      8418      8421      8423      8418      8421      8424
      8422      8421      8423      8422      8421      8424      8423      8421      8424
      8421      8424      8425      8421      8424      8426      8421      8424      8427
      8425      8424      8426      8425      8424      8427      8426      8424      8427
      8424      8427      8428      8424      8427      8429      8424      8427      8430
      8428      8427      8429      8428      8427      8430      8429      8427      8430
      8427      8430      8431      8427      8430      8432      8427      8430      8433
      8431      8430      8432      8431      8430      8433      8432      8430      8433
      8430      8433      8434      8430      8433      8435      8430      8433      8436
      8434      8433      8435      8434      8433      8436      8435      8433      8436
      8433      8436      8437      8433      8436      8438      8433      8436      8439
      8437      8436      8438      8437      8436      8439      8438      8436      8439
      8436      8439      8440      8436      8439      8441      8436      8439      8442
      8440      8439      8441      8440      8439      8442      8441      8439      8442
      8439      8442      8443      8439      8442      8444      8439      8442      8445
      8443      8442      8444      8443      8442      8445      8444      8442      8445
      8442      8445      8446      8442      8445      8447      8442      8445      8448
      8446      8445      8447      8446      8445      8448      8447      8445      8448
      8450      8449      8453      8450      8449      8457      8450      8449      8461
      8453      8449      8457      8453      8449      8461      8457      8449      8461
      8449      8450      8451      8449      8450      8452      8449      8450      8465
      8451      8450      8452      8451      8450      8465      8452      8450      8465
      8449      8453      8454      8449      8453      8455      8449      8453      8456
      8454      8453      8455      8454      8453      8456      8455      8453      8456
      8449      8457      8458      8449      8457      8459      8449      8457      8460
      8458      8457      8459      8458      8457      8460      8459      8457      8460
      8449      8461      8462      8449      8461      8463      8449      8461      8464
      8462      8461      8463      8462      8461      8464      8463      8461      8464
      8450      8465      8466      8450      8465      8467      8450      8465      8471
      8466      8465      8467      8466      8465      8471      8467      8465      8471
      8469      8468      8470      8469      8468      8471      8469      8468      8472
      8470      8468      8471      8470      8468      8472      8471      8468      8472
      8465      8471      8468      8468      8472      8473      8472      8473      8474
      8472      8473      8475      8472      8473      8476      8474      8473      8475
      8474      8473      8476      8475      8473      8476      8473      8476      8477
      8473      8476      8478      8473      8476      8484      8477      8476      8478
      8477      8476      8484      8478      8476      8484      8476      8478      8479
      8478      8479      8480      8478      8479      8481      8480      8479      8481
      8479      8481      8482      8479      8481      8483      8479      8481      8493
      8482      8481      8483      8482      8481      8493      8483      8481      8493
      8476      8484      8485      8476      8484      8486      8476      8484      8487
      8485      8484      8486      8485      8484      8487      8486      8484      8487
      8484      8487      8488      8487      8488      8489      8487      8488      8490
      8489      8488      8490      8488      8490      8491      8488      8490      8492
      8488      8490      8540      8491      8490      8492      8491      8490      8540
      8492      8490      8540      8481      8493      8494      8481      8493      8495
      8481      8493      8496      8494      8493      8495      8494      8493      8496
      8495      8493      8496      8493      8496      8497      8493      8496      8498
      8493      8496      8499      8497      8496      8498      8497      8496      8499
      8498      8496      8499      8496      8499      8500      8496      8499      8501
      8496      8499      8502      8500      8499      8501      8500      8499      8502
      8501      8499      8502      8499      8502      8503      8499      8502      8504
      8499      8502      8505      8503      8502      8504      8503      8502      8505
      8504      8502      8505      8502      8505      8506      8502      8505      8507
      8502      8505      8508      8506      8505      8507      8506      8505      8508
      8507      8505      8508      8505      8508      8509      8505      8508      8510
      8505      8508      8511      8509      8508      8510      8509      8508      8511
      8510      8508      8511      8508      8511      8512      8508      8511      8513
      8512      8511      8513      8511      8513      8514      8511      8513      8515
      8514      8513      8515      8513      8515      8516      8513      8515      8517
      8513      8515      8518      8516      8515      8517      8516      8515      8518
      8517      8515      8518      8515      8518      8519      8515      8518      8520
      8515      8518      8521      8519      8518      8520      8519      8518      8521
      8520      8518      8521      8518      8521      8522      8518      8521      8523
      8518      8521      8524      8522      8521      8523      8522      8521      8524
      8523      8521      8524      8521      8524      8525      8521      8524      8526
      8521      8524      8527      8525      8524      8526      8525      8524      8527
      8526      8524      8527      8524      8527      8528      8524      8527      8529
      8524      8527      8530      8528      8527      8529      8528      8527      8530
      8529      8527      8530      8527      8530      8531      8527      8530      8532
      8527      8530      8533      8531      8530      8532      8531      8530      8533
      8532      8530      8533      8530      8533      8534      8530      8533      8535
      8530      8533      8536      8534      8533      8535      8534      8533      8536
      8535      8533      8536      8533      8536      8537      8533      8536      8538
      8533      8536      8539      8537      8536      8538      8537      8536      8539
      8538      8536      8539      8490      8540      8541      8490      8540      8542
      8490      8540      8543      8541      8540      8542      8541      8540      8543
      8542      8540      8543      8540      8543      8544      8540      8543      8545
      8540      8543      8546      8544      8543      8545      8544      8543      8546
      8545      8543      8546      8543      8546      8547      8543      8546      8548
      8543      8546      8549      8547      8546      8548      8547      8546      8549
      8548      8546      8549      8546      8549      8550      8546      8549      8551
      8546      8549      8552      8550      8549      8551      8550      8549      8552
      8551      8549      8552      8549      8552      8553      8549      8552      8554
      8549      8552      8555      8553      8552      8554      8553      8552      8555
      8554      8552      8555      8552      8555      8556      8552      8555      8557
      8552      8555      8558      8556      8555      8557      8556      8555      8558
      8557      8555      8558      8555      8558      8559      8555      8558      8560
      8555      8558      8561      8559      8558      8560      8559      8558      8561
      8560      8558      8561      8558      8561      8562      8558      8561      8563
      8558      8561      8564      8562      8561      8563      8562      8561      8564
      8563      8561      8564      8561      8564      8565      8561      8564      8566
      8561      8564      8567      8565      8564      8566      8565      8564      8567
      8566      8564      8567      8564      8567      8568      8564      8567      8569
      8564      8567      8570      8568      8567      8569      8568      8567      8570
      8569      8567      8570      8567      8570      8571      8567      8570      8572
      8567      8570      8573      8571      8570      8572      8571      8570      8573
      8572      8570      8573      8570      8573      8574      8570      8573      8575
      8570      8573      8576      8574      8573      8575      8574      8573      8576
      8575      8573      8576      8573      8576      8577      8573      8576      8578
      8573      8576      8579      8577      8576      8578      8577      8576      8579
      8578      8576      8579      8576      8579      8580      8576      8579      8581
      8576      8579      8582      8580      8579      8581      8580      8579      8582
      8581      8579      8582      8584      8583      8587      8584      8583      8591
      8584      8583      8595      8587      8583      8591      8587      8583      8595
      8591      8583      8595      8583      8584      8585      8583      8584      8586
      8583      8584      8599      8585      8584      8586      8585      8584      8599
      8586      8584      8599      8583      8587      8588      8583      8587      8589
      8583      8587      8590      8588      8587      8589      8588      8587      8590
      8589      8587      8590      8583      8591      8592      8583      8591      8593
      8583      8591      8594      8592      8591      8593      8592      8591      8594
      8593      8591      8594      8583      8595      8596      8583      8595      8597
      8583      8595      8598      8596      8595      8597      8596      8595      8598
      8597      8595      8598      8584      8599      8600      8584      8599      8601
      8584      8599      8605      8600      8599      8601      8600      8599      8605
      8601      8599      8605      8603      8602      8604      8603      8602      8605
      8603      8602      8606      8604      8602      8605      8604      8602      8606
      8605      8602      8606      8599      8605      8602      8602      8606      8607
      8606      8607      8608      8606      8607      8609      8606      8607      8610
      8608      8607      8609      8608      8607      8610      8609      8607      8610
      8607      8610      8611      8607      8610      8612      8607      8610      8618
      8611      8610      8612      8611      8610      8618      8612      8610      8618
      8610      8612      8613      8612      8613      8614      8612      8613      8615
      8614      8613      8615      8613      8615      8616      8613      8615      8617
      8613      8615      8627      8616      8615      8617      8616      8615      8627
      8617      8615      8627      8610      8618      8619      8610      8618      8620
      8610      8618      8621      8619      8618      8620      8619      8618      8621
      8620      8618      8621      8618      8621      8622      8621      8622      8623
      8621      8622      8624      8623      8622      8624      8622      8624      8625
      8622      8624      8626      8622      8624      8674      8625      8624      8626
      8625      8624      8674      8626      8624      8674      8615      8627      8628
      8615      8627      8629      8615      8627      8630      8628      8627      8629
      8628      8627      8630      8629      8627      8630      8627      8630      8631
      8627      8630      8632      8627      8630      8633      8631      8630      8632
      8631      8630      8633      8632      8630      8633      8630      8633      8634
      8630      8633      8635      8630      8633      8636      8634      8633      8635
      8634      8633      8636      8635      8633      8636      8633      8636      8637
      8633      8636      8638      8633      8636      8639      8637      8636      8638
      8637      8636      8639      8638      8636      8639      8636      8639      8640
      8636      8639      8641      8636      8639      8642      8640      8639      8641
      8640      8639      8642      8641      8639      8642      8639      8642      8643
      8639      8642      8644      8639      8642      8645      8643      8642      8644
      8643      8642      8645      8644      8642      8645      8642      8645      8646
      8642      8645      8647      8646      8645      8647      8645      8647      8648
      8645      8647      8649      8648      8647      8649      8647      8649      8650
      8647      8649      8651      8647      8649      8652      8650      8649      8651
      8650      8649      8652      8651      8649      8652      8649      8652      8653
      8649      8652      8654      8649      8652      8655      8653      8652      8654
      8653      8652      8655      8654      8652      8655      8652      8655      8656
      8652      8655      8657      8652      8655      8658      8656      8655      8657
      8656      8655      8658      8657      8655      8658      8655      8658      8659
      8655      8658      8660      8655      8658      8661      8659      8658      8660
      8659      8658      8661      8660      8658      8661      8658      8661      8662
      8658      8661      8663      8658      8661      8664      8662      8661      8663
      8662      8661      8664      8663      8661      8664      8661      8664      8665
      8661      8664      8666      8661      8664      8667      8665      8664      8666
      8665      8664      8667      8666      8664      8667      8664      8667      8668
      8664      8667      8669      8664      8667      8670      8668      8667      8669
      8668      8667      8670      8669      8667      8670      8667      8670      8671
      8667      8670      8672      8667      8670      8673      8671      8670      8672
      8671      8670      8673      8672      8670      8673      8624      8674      8675
      8624      8674      8676      8624      8674      8677      8675      8674      8676
      8675      8674      8677      8676      8674      8677      8674      8677      8678
      8674      8677      8679      8674      8677      8680      8678      8677      8679
      8678      8677      8680      8679      8677      8680      8677      8680      8681
      8677      8680      8682      8677      8680      8683      8681      8680      8682
      8681      8680      8683      8682      8680      8683      8680      8683      8684
      8680      8683      8685      8680      8683      8686      8684      8683      8685
      8684      8683      8686      8685      8683      8686      8683      8686      8687
      8683      8686      8688      8683      8686      8689      8687      8686      8688
      8687      8686      8689      8688      8686      8689      8686      8689      8690
      8686      8689      8691      8686      8689      8692      8690      8689      8691
      8690      8689      8692      8691      8689      8692      8689      8692      8693
      8689      8692      8694      8689      8692      8695      8693      8692      8694
      8693      8692      8695      8694      8692      8695      8692      8695      8696
      8692      8695      8697      8692      8695      8698      8696      8695      8697
      8696      8695      8698      8697      8695      8698      8695      8698      8699
      8695      8698      8700      8695      8698      8701      8699      8698      8700
      8699      8698      8701      8700      8698      8701      8698      8701      8702
      8698      8701      8703      8698      8701      8704      8702      8701      8703
      8702      8701      8704      8703      8701      8704      8701      8704      8705
      8701      8704      8706      8701      8704      8707      8705      8704      8706
      8705      8704      8707      8706      8704      8707      8704      8707      8708
      8704      8707      8709      8704      8707      8710      8708      8707      8709
      8708      8707      8710      8709      8707      8710      8707      8710      8711
      8707      8710      8712      8707      8710      8713      8711      8710      8712
      8711      8710      8713      8712      8710      8713      8710      8713      8714
      8710      8713      8715      8710      8713      8716      8714      8713      8715
      8714      8713      8716      8715      8713      8716      8718      8717      8721
      8718      8717      8725      8718      8717      8729      8721      8717      8725
      8721      8717      8729      8725      8717      8729      8717      8718      8719
      8717      8718      8720      8717      8718      8733      8719      8718      8720
      8719      8718      8733      8720      8718      8733      8717      8721      8722
      8717      8721      8723      8717      8721      8724      8722      8721      8723
      8722      8721      8724      8723      8721      8724      8717      8725      8726
      8717      8725      8727      8717      8725      8728      8726      8725      8727
      8726      8725      8728      8727      8725      8728      8717      8729      8730
      8717      8729      8731      8717      8729      8732      8730      8729      8731
      8730      8729      8732      8731      8729      8732      8718      8733      8734
      8718      8733      8735      8718      8733      8739      8734      8733      8735
      8734      8733      8739      8735      8733      8739      8737      8736      8738
      8737      8736      8739      8737      8736      8740      8738      8736      8739
      8738      8736      8740      8739      8736      8740      8733      8739      8736
      8736      8740      8741      8740      8741      8742      8740      8741      8743
      8740      8741      8744      8742      8741      8743      8742      8741      8744
      8743      8741      8744      8741      8744      8745      8741      8744      8746
      8741      8744      8752      8745      8744      8746      8745      8744      8752
      8746      8744      8752      8744      8746      8747      8746      8747      8748
      8746      8747      8749      8748      8747      8749      8747      8749      8750
      8747      8749      8751      8747      8749      8761      8750      8749      8751
      8750      8749      8761      8751      8749      8761      8744      8752      8753
      8744      8752      8754      8744      8752      8755      8753      8752      8754
      8753      8752      8755      8754      8752      8755      8752      8755      8756
      8755      8756      8757      8755      8756      8758      8757      8756      8758
      8756      8758      8759      8756      8758      8760      8756      8758      8808
      8759      8758      8760      8759      8758      8808      8760      8758      8808
      8749      8761      8762      8749      8761      8763      8749      8761      8764
      8762      8761      8763      8762      8761      8764      8763      8761      8764
      8761      8764      8765      8761      8764      8766      8761      8764      8767
      8765      8764      8766      8765      8764      8767      8766      8764      8767
      8764      8767      8768      8764      8767      8769      8764      8767      8770
      8768      8767      8769      8768      8767      8770      8769      8767      8770
      8767      8770      8771      8767      8770      8772      8767      8770      8773
      8771      8770      8772      8771      8770      8773      8772      8770      8773
      8770      8773      8774      8770      8773      8775      8770      8773      8776
      8774      8773      8775      8774      8773      8776      8775      8773      8776
      8773      8776      8777      8773      8776      8778      8773      8776      8779
      8777      8776      8778      8777      8776      8779      8778      8776      8779
      8776      8779      8780      8776      8779      8781      8780      8779      8781
      8779      8781      8782      8779      8781      8783      8782      8781      8783
      8781      8783      8784      8781      8783      8785      8781      8783      8786
      8784      8783      8785      8784      8783      8786      8785      8783      8786
      8783      8786      8787      8783      8786      8788      8783      8786      8789
      8787      8786      8788      8787      8786      8789      8788      8786      8789
      8786      8789      8790      8786      8789      8791      8786      8789      8792
      8790      8789      8791      8790      8789      8792      8791      8789      8792
      8789      8792      8793      8789      8792      8794      8789      8792      8795
      8793      8792      8794      8793      8792      8795      8794      8792      8795
      8792      8795      8796      8792      8795      8797      8792      8795      8798
      8796      8795      8797      8796      8795      8798      8797      8795      8798
      8795      8798      8799      8795      8798      8800      8795      8798      8801
      8799      8798      8800      8799      8798      8801      8800      8798      8801
      8798      8801      8802      8798      8801      8803      8798      8801      8804
      8802      8801      8803      8802      8801      8804      8803      8801      8804
      8801      8804      8805      8801      8804      8806      8801      8804      8807
      8805      8804      8806      8805      8804      8807      8806      8804      8807
      8758      8808      8809      8758      8808      8810      8758      8808      8811
      8809      8808      8810      8809      8808      8811      8810      8808      8811
      8808      8811      8812      8808      8811      8813      8808      8811      8814
      8812      8811      8813      8812      8811      8814      8813      8811      8814
      8811      8814      8815      8811      8814      8816      8811      8814      8817
      8815      8814      8816      8815      8814      8817      8816      8814      8817
      8814      8817      8818      8814      8817      8819      8814      8817      8820
      8818      8817      8819      8818      8817      8820      8819      8817      8820
      8817      8820      8821      8817      8820      8822      8817      8820      8823
      8821      8820      8822      8821      8820      8823      8822      8820      8823
      8820      8823      8824      8820      8823      8825      8820      8823      8826
      8824      8823      8825      8824      8823      8826      8825      8823      8826
      8823      8826      8827      8823      8826      8828      8823      8826      8829
      8827      8826      8828      8827      8826      8829      8828      8826      8829
      8826      8829      8830      8826      8829      8831      8826      8829      8832
      8830      8829      8831      8830      8829      8832      8831      8829      8832
      8829      8832      8833      8829      8832      8834      8829      8832      8835
      8833      8832      8834      8833      8832      8835      8834      8832      8835
      8832      8835      8836      8832      8835      8837      8832      8835      8838
      8836      8835      8837      8836      8835      8838      8837      8835      8838
      8835      8838      8839      8835      8838      8840      8835      8838      8841
      8839      8838      8840      8839      8838      8841      8840      8838      8841
      8838      8841      8842      8838      8841      8843      8838      8841      8844
      8842      8841      8843      8842      8841      8844      8843      8841      8844
      8841      8844      8845      8841      8844      8846      8841      8844      8847
      8845      8844      8846      8845      8844      8847      8846      8844      8847
      8844      8847      8848      8844      8847      8849      8844      8847      8850
      8848      8847      8849      8848      8847      8850      8849      8847      8850
      8852      8851      8855      8852      8851      8859      8852      8851      8863
      8855      8851      8859      8855      8851      8863      8859      8851      8863
      8851      8852      8853      8851      8852      8854      8851      8852      8867
      8853      8852      8854      8853      8852      8867      8854      8852      8867
      8851      8855      8856      8851      8855      8857      8851      8855      8858
      8856      8855      8857      8856      8855      8858      8857      8855      8858
      8851      8859      8860      8851      8859      8861      8851      8859      8862
      8860      8859      8861      8860      8859      8862      8861      8859      8862
      8851      8863      8864      8851      8863      8865      8851      8863      8866
      8864      8863      8865      8864      8863      8866      8865      8863      8866
      8852      8867      8868      8852      8867      8869      8852      8867      8873
      8868      8867      8869      8868      8867      8873      8869      8867      8873
      8871      8870      8872      8871      8870      8873      8871      8870      8874
      8872      8870      8873      8872      8870      8874      8873      8870      8874
      8867      8873      8870      8870      8874      8875      8874      8875      8876
      8874      8875      8877      8874      8875      8878      8876      8875      8877
      8876      8875      8878      8877      8875      8878      8875      8878      8879
      8875      8878      8880      8875      8878      8886      8879      8878      8880
      8879      8878      8886      8880      8878      8886      8878      8880      8881
      8880      8881      8882      8880      8881      8883      8882      8881      8883
      8881      8883      8884      8881      8883      8885      8881      8883      8895
      8884      8883      8885      8884      8883      8895      8885      8883      8895
      8878      8886      8887      8878      8886      8888      8878      8886      8889
      8887      8886      8888      8887      8886      8889      8888      8886      8889
      8886      8889      8890      8889      8890      8891      8889      8890      8892
      8891      8890      8892      8890      8892      8893      8890      8892      8894
      8890      8892      8942      8893      8892      8894      8893      8892      8942
      8894      8892      8942      8883      8895      8896      8883      8895      8897
      8883      8895      8898      8896      8895      8897      8896      8895      8898
      8897      8895      8898      8895      8898      8899      8895      8898      8900
      8895      8898      8901      8899      8898      8900      8899      8898      8901
      8900      8898      8901      8898      8901      8902      8898      8901      8903
      8898      8901      8904      8902      8901      8903      8902      8901      8904
      8903      8901      8904      8901      8904      8905      8901      8904      8906
      8901      8904      8907      8905      8904      8906      8905      8904      8907
      8906      8904      8907      8904      8907      8908      8904      8907      8909
      8904      8907      8910      8908      8907      8909      8908      8907      8910
      8909      8907      8910      8907      8910      8911      8907      8910      8912
      8907      8910      8913      8911      8910      8912      8911      8910      8913
      8912      8910      8913      8910      8913      8914      8910      8913      8915
      8914      8913      8915      8913      8915      8916      8913      8915      8917
      8916      8915      8917      8915      8917      8918      8915      8917      8919
      8915      8917      8920      8918      8917      8919      8918      8917      8920
      8919      8917      8920      8917      8920      8921      8917      8920      8922
      8917      8920      8923      8921      8920      8922      8921      8920      8923
      8922      8920      8923      8920      8923      8924      8920      8923      8925
      8920      8923      8926      8924      8923      8925      8924      8923      8926
      8925      8923      8926      8923      8926      8927      8923      8926      8928
      8923      8926      8929      8927      8926      8928      8927      8926      8929
      8928      8926      8929      8926      8929      8930      8926      8929      8931
      8926      8929      8932      8930      8929      8931      8930      8929      8932
      8931      8929      8932      8929      8932      8933      8929      8932      8934
      8929      8932      8935      8933      8932      8934      8933      8932      8935
      8934      8932      8935      8932      8935      8936      8932      8935      8937
      8932      8935      8938      8936      8935      8937      8936      8935      8938
      8937      8935      8938      8935      8938      8939      8935      8938      8940
      8935      8938      8941      8939      8938      8940      8939      8938      8941
      8940      8938      8941      8892      8942      8943      8892      8942      8944
      8892      8942      8945      8943      8942      8944      8943      8942      8945
      8944      8942      8945      8942      8945      8946      8942      8945      8947
      8942      8945      8948      8946      8945      8947      8946      8945      8948
      8947      8945      8948      8945      8948      8949      8945      8948      8950
      8945      8948      8951      8949      8948      8950      8949      8948      8951
      8950      8948      8951      8948      8951      8952      8948      8951      8953
      8948      8951      8954      8952      8951      8953      8952      8951      8954
      8953      8951      8954      8951      8954      8955      8951      8954      8956
      8951      8954      8957      8955      8954      8956      8955      8954      8957
      8956      8954      8957      8954      8957      8958      8954      8957      8959
      8954      8957      8960      8958      8957      8959      8958      8957      8960
      8959      8957      8960      8957      8960      8961      8957      8960      8962
      8957      8960      8963      8961      8960      8962      8961      8960      8963
      8962      8960      8963      8960      8963      8964      8960      8963      8965
      8960      8963      8966      8964      8963      8965      8964      8963      8966
      8965      8963      8966      8963      8966      8967      8963      8966      8968
      8963      8966      8969      8967      8966      8968      8967      8966      8969
      8968      8966      8969      8966      8969      8970      8966      8969      8971
      8966      8969      8972      8970      8969      8971      8970      8969      8972
      8971      8969      8972      8969      8972      8973      8969      8972      8974
      8969      8972      8975      8973      8972      8974      8973      8972      8975
      8974      8972      8975      8972      8975      8976      8972      8975      8977
      8972      8975      8978      8976      8975      8977      8976      8975      8978
      8977      8975      8978      8975      8978      8979      8975      8978      8980
      8975      8978      8981      8979      8978      8980      8979      8978      8981
      8980      8978      8981      8978      8981      8982      8978      8981      8983
      8978      8981      8984      8982      8981      8983      8982      8981      8984
      8983      8981      8984      8986      8985      8989      8986      8985      8993
      8986      8985      8997      8989      8985      8993      8989      8985      8997
      8993      8985      8997      8985      8986      8987      8985      8986      8988
      8985      8986      9001      8987      8986      8988      8987      8986      9001
      8988      8986      9001      8985      8989      8990      8985      8989      8991
      8985      8989      8992      8990      8989      8991      8990      8989      8992
      8991      8989      8992      8985      8993      8994      8985      8993      8995
      8985      8993      8996      8994      8993      8995      8994      8993      8996
      8995      8993      8996      8985      8997      8998      8985      8997      8999
      8985      8997      9000      8998      8997      8999      8998      8997      9000
      8999      8997      9000      8986      9001      9002      8986      9001      9003
      8986      9001      9007      9002      9001      9003      9002      9001      9007
      9003      9001      9007      9005      9004      9006      9005      9004      9007
      9005      9004      9008      9006      9004      9007      9006      9004      9008
      9007      9004      9008      9001      9007      9004      9004      9008      9009
      9008      9009      9010      9008      9009      9011      9008      9009      9012
      9010      9009      9011      9010      9009      9012      9011      9009      9012
      9009      9012      9013      9009      9012      9014      9009      9012      9020
      9013      9012      9014      9013      9012      9020      9014      9012      9020
      9012      9014      9015      9014      9015      9016      9014      9015      9017
      9016      9015      9017      9015      9017      9018      9015      9017      9019
      9015      9017      9029      9018      9017      9019      9018      9017      9029
      9019      9017      9029      9012      9020      9021      9012      9020      9022
      9012      9020      9023      9021      9020      9022      9021      9020      9023
      9022      9020      9023      9020      9023      9024      9023      9024      9025
      9023      9024      9026      9025      9024      9026      9024      9026      9027
      9024      9026      9028      9024      9026      9076      9027      9026      9028
      9027      9026      9076      9028      9026      9076      9017      9029      9030
      9017      9029      9031      9017      9029      9032      9030      9029      9031
      9030      9029      9032      9031      9029      9032      9029      9032      9033
      9029      9032      9034      9029      9032      9035      9033      9032      9034
      9033      9032      9035      9034      9032      9035      9032      9035      9036
      9032      9035      9037      9032      9035      9038      9036      9035      9037
      9036      9035      9038      9037      9035      9038      9035      9038      9039
      9035      9038      9040      9035      9038      9041      9039      9038      9040
      9039      9038      9041      9040      9038      9041      9038      9041      9042
      9038      9041      9043      9038      9041      9044      9042      9041      9043
      9042      9041      9044      9043      9041      9044      9041      9044      9045
      9041      9044      9046      9041      9044      9047      9045      9044      9046
      9045      9044      9047      9046      9044      9047      9044      9047      9048
      9044      9047      9049      9048      9047      9049      9047      9049      9050
      9047      9049      9051      9050      9049      9051      9049      9051      9052
      9049      9051      9053      9049      9051      9054      9052      9051      9053
      9052      9051      9054      9053      9051      9054      9051      9054      9055
      9051      9054      9056      9051      9054      9057      9055      9054      9056
      9055      9054      9057      9056      9054      9057      9054      9057      9058
      9054      9057      9059      9054      9057      9060      9058      9057      9059
      9058      9057      9060      9059      9057      9060      9057      9060      9061
      9057      9060      9062      9057      9060      9063      9061      9060      9062
      9061      9060      9063      9062      9060      9063      9060      9063      9064
      9060      9063      9065      9060      9063      9066      9064      9063      9065
      9064      9063      9066      9065      9063      9066      9063      9066      9067
      9063      9066      9068      9063      9066      9069      9067      9066      9068
      9067      9066      9069      9068      9066      9069      9066      9069      9070
      9066      9069      9071      9066      9069      9072      9070      9069      9071
      9070      9069      9072      9071      9069      9072      9069      9072      9073
      9069      9072      9074      9069      9072      9075      9073      9072      9074
      9073      9072      9075      9074      9072      9075      9026      9076      9077
      9026      9076      9078      9026      9076      9079      9077      9076      9078
      9077      9076      9079      9078      9076      9079      9076      9079      9080
      9076      9079      9081      9076      9079      9082      9080      9079      9081
      9080      9079      9082      9081      9079      9082      9079      9082      9083
      9079      9082      9084      9079      9082      9085      9083      9082      9084
      9083      9082      9085      9084      9082      9085      9082      9085      9086
      9082      9085      9087      9082      9085      9088      9086      9085      9087
      9086      9085      9088      9087      9085      9088      9085      9088      9089
      9085      9088      9090      9085      9088      9091      9089      9088      9090
      9089      9088      9091      9090      9088      9091      9088      9091      9092
      9088      9091      9093      9088      9091      9094      9092      9091      9093
      9092      9091      9094      9093      9091      9094      9091      9094      9095
      9091      9094      9096      9091      9094      9097      9095      9094      9096
      9095      9094      9097      9096      9094      9097      9094      9097      9098
      9094      9097      9099      9094      9097      9100      9098      9097      9099
      9098      9097      9100      9099      9097      9100      9097      9100      9101
      9097      9100      9102      9097      9100      9103      9101      9100      9102
      9101      9100      9103      9102      9100      9103      9100      9103      9104
      9100      9103      9105      9100      9103      9106      9104      9103      9105
      9104      9103      9106      9105      9103      9106      9103      9106      9107
      9103      9106      9108      9103      9106      9109      9107      9106      9108
      9107      9106      9109      9108      9106      9109      9106      9109      9110
      9106      9109      9111      9106      9109      9112      9110      9109      9111
      9110      9109      9112      9111      9109      9112      9109      9112      9113
      9109      9112      9114      9109      9112      9115      9113      9112      9114
      9113      9112      9115      9114      9112      9115      9112      9115      9116
      9112      9115      9117      9112      9115      9118      9116      9115      9117
      9116      9115      9118      9117      9115      9118      9120      9119      9123
      9120      9119      9127      9120      9119      9131      9123      9119      9127
      9123      9119      9131      9127      9119      9131      9119      9120      9121
      9119      9120      9122      9119      9120      9135      9121      9120      9122
      9121      9120      9135      9122      9120      9135      9119      9123      9124
      9119      9123      9125      9119      9123      9126      9124      9123      9125
      9124      9123      9126      9125      9123      9126      9119      9127      9128
      9119      9127      9129      9119      9127      9130      9128      9127      9129
      9128      9127      9130      9129      9127      9130      9119      9131      9132
      9119      9131      9133      9119      9131      9134      9132      9131      9133
      9132      9131      9134      9133      9131      9134      9120      9135      9136
      9120      9135      9137      9120      9135      9141      9136      9135      9137
      9136      9135      9141      9137      9135      9141      9139      9138      9140
      9139      9138      9141      9139      9138      9142      9140      9138      9141
      9140      9138      9142      9141      9138      9142      9135      9141      9138
      9138      9142      9143      9142      9143      9144      9142      9143      9145
      9142      9143      9146      9144      9143      9145      9144      9143      9146
      9145      9143      9146      9143      9146      9147      9143      9146      9148
      9143      9146      9154      9147      9146      9148      9147      9146      9154
      9148      9146      9154      9146      9148      9149      9148      9149      9150
      9148      9149      9151      9150      9149      9151      9149      9151      9152
      9149      9151      9153      9149      9151      9163      9152      9151      9153
      9152      9151      9163      9153      9151      9163      9146      9154      9155
      9146      9154      9156      9146      9154      9157      9155      9154      9156
      9155      9154      9157      9156      9154      9157      9154      9157      9158
      9157      9158      9159      9157      9158      9160      9159      9158      9160
      9158      9160      9161      9158      9160      9162      9158      9160      9210
      9161      9160      9162      9161      9160      9210      9162      9160      9210
      9151      9163      9164      9151      9163      9165      9151      9163      9166
      9164      9163      9165      9164      9163      9166      9165      9163      9166
      9163      9166      9167      9163      9166      9168      9163      9166      9169
      9167      9166      9168      9167      9166      9169      9168      9166      9169
      9166      9169      9170      9166      9169      9171      9166      9169      9172
      9170      9169      9171      9170      9169      9172      9171      9169      9172
      9169      9172      9173      9169      9172      9174      9169      9172      9175
      9173      9172      9174      9173      9172      9175      9174      9172      9175
      9172      9175      9176      9172      9175      9177      9172      9175      9178
      9176      9175      9177      9176      9175      9178      9177      9175      9178
      9175      9178      9179      9175      9178      9180      9175      9178      9181
      9179      9178      9180      9179      9178      9181      9180      9178      9181
      9178      9181      9182      9178      9181      9183      9182      9181      9183
      9181      9183      9184      9181      9183      9185      9184      9183      9185
      9183      9185      9186      9183      9185      9187      9183      9185      9188
      9186      9185      9187      9186      9185      9188      9187      9185      9188
      9185      9188      9189      9185      9188      9190      9185      9188      9191
      9189      9188      9190      9189      9188      9191      9190      9188      9191
      9188      9191      9192      9188      9191      9193      9188      9191      9194
      9192      9191      9193      9192      9191      9194      9193      9191      9194
      9191      9194      9195      9191      9194      9196      9191      9194      9197
      9195      9194      9196      9195      9194      9197      9196      9194      9197
      9194      9197      9198      9194      9197      9199      9194      9197      9200
      9198      9197      9199      9198      9197      9200      9199      9197      9200
      9197      9200      9201      9197      9200      9202      9197      9200      9203
      9201      9200      9202      9201      9200      9203      9202      9200      9203
      9200      9203      9204      9200      9203      9205      9200      9203      9206
      9204      9203      9205      9204      9203      9206      9205      9203      9206
      9203      9206      9207      9203      9206      9208      9203      9206      9209
      9207      9206      9208      9207      9206      9209      9208      9206      9209
      9160      9210      9211      9160      9210      9212      9160      9210      9213
      9211      9210      9212      9211      9210      9213      9212      9210      9213
      9210      9213      9214      9210      9213      9215      9210      9213      9216
      9214      9213      9215      9214      9213      9216      9215      9213      9216
      9213      9216      9217      9213      9216      9218      9213      9216      9219
      9217      9216      9218      9217      9216      9219      9218      9216      9219
      9216      9219      9220      9216      9219      9221      9216      9219      9222
      9220      9219      9221      9220      9219      9222      9221      9219      9222
      9219      9222      9223      9219      9222      9224      9219      9222      9225
      9223      9222      9224      9223      9222      9225      9224      9222      9225
      9222      9225      9226      9222      9225      9227      9222      9225      9228
      9226      9225      9227      9226      9225      9228      9227      9225      9228
      9225      9228      9229      9225      9228      9230      9225      9228      9231
      9229      9228      9230      9229      9228      9231      9230      9228      9231
      9228      9231      9232      9228      9231      9233      9228      9231      9234
      9232      9231      9233      9232      9231      9234      9233      9231      9234
      9231      9234      9235      9231      9234      9236      9231      9234      9237
      9235      9234      9236      9235      9234      9237      9236      9234      9237
      9234      9237      9238      9234      9237      9239      9234      9237      9240
      9238      9237      9239      9238      9237      9240      9239      9237      9240
      9237      9240      9241      9237      9240      9242      9237      9240      9243
      9241      9240      9242      9241      9240      9243      9242      9240      9243
      9240      9243      9244      9240      9243      9245      9240      9243      9246
      9244      9243      9245      9244      9243      9246      9245      9243      9246
      9243      9246      9247      9243      9246      9248      9243      9246      9249
      9247      9246      9248      9247      9246      9249      9248      9246      9249
      9246      9249      9250      9246      9249      9251      9246      9249      9252
      9250      9249      9251      9250      9249      9252      9251      9249      9252
      9254      9253      9257      9254      9253      9261      9254      9253      9265
      9257      9253      9261      9257      9253      9265      9261      9253      9265
      9253      9254      9255      9253      9254      9256      9253      9254      9269
      9255      9254      9256      9255      9254      9269      9256      9254      9269
      9253      9257      9258      9253      9257      9259      9253      9257      9260
      9258      9257      9259      9258      9257      9260      9259      9257      9260
      9253      9261      9262      9253      9261      9263      9253      9261      9264
      9262      9261      9263      9262      9261      9264      9263      9261      9264
      9253      9265      9266      9253      9265      9267      9253      9265      9268
      9266      9265      9267      9266      9265      9268      9267      9265      9268
      9254      9269      9270      9254      9269      9271      9254      9269      9275
      9270      9269      9271      9270      9269      9275      9271      9269      9275
      9273      9272      9274      9273      9272      9275      9273      9272      9276
      9274      9272      9275      9274      9272      9276      9275      9272      9276
      9269      9275      9272      9272      9276      9277      9276      9277      9278
      9276      9277      9279      9276      9277      9280      9278      9277      9279
      9278      9277      9280      9279      9277      9280      9277      9280      9281
      9277      9280      9282      9277      9280      9288      9281      9280      9282
      9281      9280      9288      9282      9280      9288      9280      9282      9283
      9282      9283      9284      9282      9283      9285      9284      9283      9285
      9283      9285      9286      9283      9285      9287      9283      9285      9297
      9286      9285      9287      9286      9285      9297      9287      9285      9297
      9280      9288      9289      9280      9288      9290      9280      9288      9291
      9289      9288      9290      9289      9288      9291      9290      9288      9291
      9288      9291      9292      9291      9292      9293      9291      9292      9294
      9293      9292      9294      9292      9294      9295      9292      9294      9296
      9292      9294      9344      9295      9294      9296      9295      9294      9344
      9296      9294      9344      9285      9297      9298      9285      9297      9299
      9285      9297      9300      9298      9297      9299      9298      9297      9300
      9299      9297      9300      9297      9300      9301      9297      9300      9302
      9297      9300      9303      9301      9300      9302      9301      9300      9303
      9302      9300      9303      9300      9303      9304      9300      9303      9305
      9300      9303      9306      9304      9303      9305      9304      9303      9306
      9305      9303      9306      9303      9306      9307      9303      9306      9308
      9303      9306      9309      9307      9306      9308      9307      9306      9309
      9308      9306      9309      9306      9309      9310      9306      9309      9311
      9306      9309      9312      9310      9309      9311      9310      9309      9312
      9311      9309      9312      9309      9312      9313      9309      9312      9314
      9309      9312      9315      9313      9312      9314      9313      9312      9315
      9314      9312      9315      9312      9315      9316      9312      9315      9317
      9316      9315      9317      9315      9317      9318      9315      9317      9319
      9318      9317      9319      9317      9319      9320      9317      9319      9321
      9317      9319      9322      9320      9319      9321      9320      9319      9322
      9321      9319      9322      9319      9322      9323      9319      9322      9324
      9319      9322      9325      9323      9322      9324      9323      9322      9325
      9324      9322      9325      9322      9325      9326      9322      9325      9327
      9322      9325      9328      9326      9325      9327      9326      9325      9328
      9327      9325      9328      9325      9328      9329      9325      9328      9330
      9325      9328      9331      9329      9328      9330      9329      9328      9331
      9330      9328      9331      9328      9331      9332      9328      9331      9333
      9328      9331      9334      9332      9331      9333      9332      9331      9334
      9333      9331      9334      9331      9334      9335      9331      9334      9336
      9331      9334      9337      9335      9334      9336      9335      9334      9337
      9336      9334      9337      9334      9337      9338      9334      9337      9339
      9334      9337      9340      9338      9337      9339      9338      9337      9340
      9339      9337      9340      9337      9340      9341      9337      9340      9342
      9337      9340      9343      9341      9340      9342      9341      9340      9343
      9342      9340      9343      9294      9344      9345      9294      9344      9346
      9294      9344      9347      9345      9344      9346      9345      9344      9347
      9346      9344      9347      9344      9347      9348      9344      9347      9349
      9344      9347      9350      9348      9347      9349      9348      9347      9350
      9349      9347      9350      9347      9350      9351      9347      9350      9352
      9347      9350      9353      9351      9350      9352      9351      9350      9353
      9352      9350      9353      9350      9353      9354      9350      9353      9355
      9350      9353      9356      9354      9353      9355      9354      9353      9356
      9355      9353      9356      9353      9356      9357      9353      9356      9358
      9353      9356      9359      9357      9356      9358      9357      9356      9359
      9358      9356      9359      9356      9359      9360      9356      9359      9361
      9356      9359      9362      9360      9359      9361      9360      9359      9362
      9361      9359      9362      9359      9362      9363      9359      9362      9364
      9359      9362      9365      9363      9362      9364      9363      9362      9365
      9364      9362      9365      9362      9365      9366      9362      9365      9367
      9362      9365      9368      9366      9365      9367      9366      9365      9368
      9367      9365      9368      9365      9368      9369      9365      9368      9370
      9365      9368      9371      9369      9368      9370      9369      9368      9371
      9370      9368      9371      9368      9371      9372      9368      9371      9373
      9368      9371      9374      9372      9371      9373      9372      9371      9374
      9373      9371      9374      9371      9374      9375      9371      9374      9376
      9371      9374      9377      9375      9374      9376      9375      9374      9377
      9376      9374      9377      9374      9377      9378      9374      9377      9379
      9374      9377      9380      9378      9377      9379      9378      9377      9380
      9379      9377      9380      9377      9380      9381      9377      9380      9382
      9377      9380      9383      9381      9380      9382      9381      9380      9383
      9382      9380      9383      9380      9383      9384      9380      9383      9385
      9380      9383      9386      9384      9383      9385      9384      9383      9386
      9385      9383      9386      9388      9387      9391      9388      9387      9395
      9388      9387      9399      9391      9387      9395      9391      9387      9399
      9395      9387      9399      9387      9388      9389      9387      9388      9390
      9387      9388      9403      9389      9388      9390      9389      9388      9403
      9390      9388      9403      9387      9391      9392      9387      9391      9393
      9387      9391      9394      9392      9391      9393      9392      9391      9394
      9393      9391      9394      9387      9395      9396      9387      9395      9397
      9387      9395      9398      9396      9395      9397      9396      9395      9398
      9397      9395      9398      9387      9399      9400      9387      9399      9401
      9387      9399      9402      9400      9399      9401      9400      9399      9402
      9401      9399      9402      9388      9403      9404      9388      9403      9405
      9388      9403      9409      9404      9403      9405      9404      9403      9409
      9405      9403      9409      9407      9406      9408      9407      9406      9409
      9407      9406      9410      9408      9406      9409      9408      9406      9410
      9409      9406      9410      9403      9409      9406      9406      9410      9411
      9410      9411      9412      9410      9411      9413      9410      9411      9414
      9412      9411      9413      9412      9411      9414      9413      9411      9414
      9411      9414      9415      9411      9414      9416      9411      9414      9422
      9415      9414      9416      9415      9414      9422      9416      9414      9422
      9414      9416      9417      9416      9417      9418      9416      9417      9419
      9418      9417      9419      9417      9419      9420      9417      9419      9421
      9417      9419      9431      9420      9419      9421      9420      9419      9431
      9421      9419      9431      9414      9422      9423      9414      9422      9424
      9414      9422      9425      9423      9422      9424      9423      9422      9425
      9424      9422      9425      9422      9425      9426      9425      9426      9427
      9425      9426      9428      9427      9426      9428      9426      9428      9429
      9426      9428      9430      9426      9428      9478      9429      9428      9430
      9429      9428      9478      9430      9428      9478      9419      9431      9432
      9419      9431      9433      9419      9431      9434      9432      9431      9433
      9432      9431      9434      9433      9431      9434      9431      9434      9435
      9431      9434      9436      9431      9434      9437      9435      9434      9436
      9435      9434      9437      9436      9434      9437      9434      9437      9438
      9434      9437      9439      9434      9437      9440      9438      9437      9439
      9438      9437      9440      9439      9437      9440      9437      9440      9441
      9437      9440      9442      9437      9440      9443      9441      9440      9442
      9441      9440      9443      9442      9440      9443      9440      9443      9444
      9440      9443      9445      9440      9443      9446      9444      9443      9445
      9444      9443      9446      9445      9443      9446      9443      9446      9447
      9443      9446      9448      9443      9446      9449      9447      9446      9448
      9447      9446      9449      9448      9446      9449      9446      9449      9450
      9446      9449      9451      9450      9449      9451      9449      9451      9452
      9449      9451      9453      9452      9451      9453      9451      9453      9454
      9451      9453      9455      9451      9453      9456      9454      9453      9455
      9454      9453      9456      9455      9453      9456      9453      9456      9457
      9453      9456      9458      9453      9456      9459      9457      9456      9458
      9457      9456      9459      9458      9456      9459      9456      9459      9460
      9456      9459      9461      9456      9459      9462      9460      9459      9461
      9460      9459      9462      9461      9459      9462      9459      9462      9463
      9459      9462      9464      9459      9462      9465      9463      9462      9464
      9463      9462      9465      9464      9462      9465      9462      9465      9466
      9462      9465      9467      9462      9465      9468      9466      9465      9467
      9466      9465      9468      9467      9465      9468      9465      9468      9469
      9465      9468      9470      9465      9468      9471      9469      9468      9470
      9469      9468      9471      9470      9468      9471      9468      9471      9472
      9468      9471      9473      9468      9471      9474      9472      9471      9473
      9472      9471      9474      9473      9471      9474      9471      9474      9475
      9471      9474      9476      9471      9474      9477      9475      9474      9476
      9475      9474      9477      9476      9474      9477      9428      9478      9479
      9428      9478      9480      9428      9478      9481      9479      9478      9480
      9479      9478      9481      9480      9478      9481      9478      9481      9482
      9478      9481      9483      9478      9481      9484      9482      9481      9483
      9482      9481      9484      9483      9481      9484      9481      9484      9485
      9481      9484      9486      9481      9484      9487      9485      9484      9486
      9485      9484      9487      9486      9484      9487      9484      9487      9488
      9484      9487      9489      9484      9487      9490      9488      9487      9489
      9488      9487      9490      9489      9487      9490      9487      9490      9491
      9487      9490      9492      9487      9490      9493      9491      9490      9492
      9491      9490      9493      9492      9490      9493      9490      9493      9494
      9490      9493      9495      9490      9493      9496      9494      9493      9495
      9494      9493      9496      9495      9493      9496      9493      9496      9497
      9493      9496      9498      9493      9496      9499      9497      9496      9498
      9497      9496      9499      9498      9496      9499      9496      9499      9500
      9496      9499      9501      9496      9499      9502      9500      9499      9501
      9500      9499      9502      9501      9499      9502      9499      9502      9503
      9499      9502      9504      9499      9502      9505      9503      9502      9504
      9503      9502      9505      9504      9502      9505      9502      9505      9506
      9502      9505      9507      9502      9505      9508      9506      9505      9507
      9506      9505      9508      9507      9505      9508      9505      9508      9509
      9505      9508      9510      9505      9508      9511      9509      9508      9510
      9509      9508      9511      9510      9508      9511      9508      9511      9512
      9508      9511      9513      9508      9511      9514      9512      9511      9513
      9512      9511      9514      9513      9511      9514      9511      9514      9515
      9511      9514      9516      9511      9514      9517      9515      9514      9516
      9515      9514      9517      9516      9514      9517      9514      9517      9518
      9514      9517      9519      9514      9517      9520      9518      9517      9519
      9518      9517      9520      9519      9517      9520      9522      9521      9523
      9522      9521      9524      9522      9521      9525      9523      9521      9524
      9523      9521      9525      9524      9521      9525      9521      9525      9526
      9521      9525      9527      9521      9525      9530      9526      9525      9527
      9526      9525      9530      9527      9525      9530      9525      9527      9528
      9525      9527      9529      9528      9527      9529      9525      9530      9531
      9525      9530      9532      9525      9530      9536      9531      9530      9532
      9531      9530      9536      9532      9530      9536      9534      9533      9535
      9534      9533      9536      9534      9533      9537      9535      9533      9536
      9535      9533      9537      9536      9533      9537      9530      9536      9533
      9533      9537      9538      9537      9538      9539      9537      9538      9540
      9537      9538      9541      9539      9538      9540      9539      9538      9541
      9540      9538      9541      9538      9541      9542      9538      9541      9543
      9538      9541      9549      9542      9541      9543      9542      9541      9549
      9543      9541      9549      9541      9543      9544      9543      9544      9545
      9543      9544      9546      9545      9544      9546      9544      9546      9547
      9544      9546      9548      9544      9546      9558      9547      9546      9548
      9547      9546      9558      9548      9546      9558      9541      9549      9550
      9541      9549      9551      9541      9549      9552      9550      9549      9551
      9550      9549      9552      9551      9549      9552      9549      9552      9553
      9552      9553      9554      9552      9553      9555      9554      9553      9555
      9553      9555      9556      9553      9555      9557      9553      9555      9605
      9556      9555      9557      9556      9555      9605      9557      9555      9605
      9546      9558      9559      9546      9558      9560      9546      9558      9561
      9559      9558      9560      9559      9558      9561      9560      9558      9561
      9558      9561      9562      9558      9561      9563      9558      9561      9564
      9562      9561      9563      9562      9561      9564      9563      9561      9564
      9561      9564      9565      9561      9564      9566      9561      9564      9567
      9565      9564      9566      9565      9564      9567      9566      9564      9567
      9564      9567      9568      9564      9567      9569      9564      9567      9570
      9568      9567      9569      9568      9567      9570      9569      9567      9570
      9567      9570      9571      9567      9570      9572      9567      9570      9573
      9571      9570      9572      9571      9570      9573      9572      9570      9573
      9570      9573      9574      9570      9573      9575      9570      9573      9576
      9574      9573      9575      9574      9573      9576      9575      9573      9576
      9573      9576      9577      9573      9576      9578      9577      9576      9578
      9576      9578      9579      9576      9578      9580      9579      9578      9580
      9578      9580      9581      9578      9580      9582      9578      9580      9583
      9581      9580      9582      9581      9580      9583      9582      9580      9583
      9580      9583      9584      9580      9583      9585      9580      9583      9586
      9584      9583      9585      9584      9583      9586      9585      9583      9586
      9583      9586      9587      9583      9586      9588      9583      9586      9589
      9587      9586      9588      9587      9586      9589      9588      9586      9589
      9586      9589      9590      9586      9589      9591      9586      9589      9592
      9590      9589      9591      9590      9589      9592      9591      9589      9592
      9589      9592      9593      9589      9592      9594      9589      9592      9595
      9593      9592      9594      9593      9592      9595      9594      9592      9595
      9592      9595      9596      9592      9595      9597      9592      9595      9598
      9596      9595      9597      9596      9595      9598      9597      9595      9598
      9595      9598      9599      9595      9598      9600      9595      9598      9601
      9599      9598      9600      9599      9598      9601      9600      9598      9601
      9598      9601      9602      9598      9601      9603      9598      9601      9604
      9602      9601      9603      9602      9601      9604      9603      9601      9604
      9555      9605      9606      9555      9605      9607      9555      9605      9608
      9606      9605      9607      9606      9605      9608      9607      9605      9608
      9605      9608      9609      9605      9608      9610      9605      9608      9611
      9609      9608      9610      9609      9608      9611      9610      9608      9611
      9608      9611      9612      9608      9611      9613      9608      9611      9614
      9612      9611      9613      9612      9611      9614      9613      9611      9614
      9611      9614      9615      9611      9614      9616      9611      9614      9617
      9615      9614      9616      9615      9614      9617      9616      9614      9617
      9614      9617      9618      9614      9617      9619      9614      9617      9620
      9618      9617      9619      9618      9617      9620      9619      9617      9620
      9617      9620      9621      9617      9620      9622      9617      9620      9623
      9621      9620      9622      9621      9620      9623      9622      9620      9623
      9620      9623      9624      9620      9623      9625      9620      9623      9626
      9624      9623      9625      9624      9623      9626      9625      9623      9626
      9623      9626      9627      9623      9626      9628      9623      9626      9629
      9627      9626      9628      9627      9626      9629      9628      9626      9629
      9626      9629      9630      9626      9629      9631      9626      9629      9632
      9630      9629      9631      9630      9629      9632      9631      9629      9632
      9629      9632      9633      9629      9632      9634      9629      9632      9635
      9633      9632      9634      9633      9632      9635      9634      9632      9635
      9632      9635      9636      9632      9635      9637      9632      9635      9638
      9636      9635      9637      9636      9635      9638      9637      9635      9638
      9635      9638      9639      9635      9638      9640      9635      9638      9641
      9639      9638      9640      9639      9638      9641      9640      9638      9641
      9638      9641      9642      9638      9641      9643      9638      9641      9644
      9642      9641      9643      9642      9641      9644      9643      9641      9644
      9641      9644      9645      9641      9644      9646      9641      9644      9647
      9645      9644      9646      9645      9644      9647      9646      9644      9647
      9649      9648      9650      9649      9648      9651      9649      9648      9652
      9650      9648      9651      9650      9648      9652      9651      9648      9652
      9648      9652      9653      9648      9652      9654      9648      9652      9657
      9653      9652      9654      9653      9652      9657      9654      9652      9657
      9652      9654      9655      9652      9654      9656      9655      9654      9656
      9652      9657      9658      9652      9657      9659      9652      9657      9663
      9658      9657      9659      9658      9657      9663      9659      9657      9663
      9661      9660      9662      9661      9660      9663      9661      9660      9664
      9662      9660      9663      9662      9660      9664      9663      9660      9664
      9657      9663      9660      9660      9664      9665      9664      9665      9666
      9664      9665      9667      9664      9665      9668      9666      9665      9667
      9666      9665      9668      9667      9665      9668      9665      9668      9669
      9665      9668      9670      9665      9668      9676      9669      9668      9670
      9669      9668      9676      9670      9668      9676      9668      9670      9671
      9670      9671      9672      9670      9671      9673      9672      9671      9673
      9671      9673      9674      9671      9673      9675      9671      9673      9685
      9674      9673      9675      9674      9673      9685      9675      9673      9685
      9668      9676      9677      9668      9676      9678      9668      9676      9679
      9677      9676      9678      9677      9676      9679      9678      9676      9679
      9676      9679      9680      9679      9680      9681      9679      9680      9682
      9681      9680      9682      9680      9682      9683      9680      9682      9684
      9680      9682      9732      9683      9682      9684      9683      9682      9732
      9684      9682      9732      9673      9685      9686      9673      9685      9687
      9673      9685      9688      9686      9685      9687      9686      9685      9688
      9687      9685      9688      9685      9688      9689      9685      9688      9690
      9685      9688      9691      9689      9688      9690      9689      9688      9691
      9690      9688      9691      9688      9691      9692      9688      9691      9693
      9688      9691      9694      9692      9691      9693      9692      9691      9694
      9693      9691      9694      9691      9694      9695      9691      9694      9696
      9691      9694      9697      9695      9694      9696      9695      9694      9697
      9696      9694      9697      9694      9697      9698      9694      9697      9699
      9694      9697      9700      9698      9697      9699      9698      9697      9700
      9699      9697      9700      9697      9700      9701      9697      9700      9702
      9697      9700      9703      9701      9700      9702      9701      9700      9703
      9702      9700      9703      9700      9703      9704      9700      9703      9705
      9704      9703      9705      9703      9705      9706      9703      9705      9707
      9706      9705      9707      9705      9707      9708      9705      9707      9709
      9705      9707      9710      9708      9707      9709      9708      9707      9710
      9709      9707      9710      9707      9710      9711      9707      9710      9712
      9707      9710      9713      9711      9710      9712      9711      9710      9713
      9712      9710      9713      9710      9713      9714      9710      9713      9715
      9710      9713      9716      9714      9713      9715      9714      9713      9716
      9715      9713      9716      9713      9716      9717      9713      9716      9718
      9713      9716      9719      9717      9716      9718      9717      9716      9719
      9718      9716      9719      9716      9719      9720      9716      9719      9721
      9716      9719      9722      9720      9719      9721      9720      9719      9722
      9721      9719      9722      9719      9722      9723      9719      9722      9724
      9719      9722      9725      9723      9722      9724      9723      9722      9725
      9724      9722      9725      9722      9725      9726      9722      9725      9727
      9722      9725      9728      9726      9725      9727      9726      9725      9728
      9727      9725      9728      9725      9728      9729      9725      9728      9730
      9725      9728      9731      9729      9728      9730      9729      9728      9731
      9730      9728      9731      9682      9732      9733      9682      9732      9734
      9682      9732      9735      9733      9732      9734      9733      9732      9735
      9734      9732      9735      9732      9735      9736      9732      9735      9737
      9732      9735      9738      9736      9735      9737      9736      9735      9738
      9737      9735      9738      9735      9738      9739      9735      9738      9740
      9735      9738      9741      9739      9738      9740      9739      9738      9741
      9740      9738      9741      9738      9741      9742      9738      9741      9743
      9738      9741      9744      9742      9741      9743      9742      9741      9744
      9743      9741      9744      9741      9744      9745      9741      9744      9746
      9741      9744      9747      9745      9744      9746      9745      9744      9747
      9746      9744      9747      9744      9747      9748      9744      9747      9749
      9744      9747      9750      9748      9747      9749      9748      9747      9750
      9749      9747      9750      9747      9750      9751      9747      9750      9752
      9747      9750      9753      9751      9750      9752      9751      9750      9753
      9752      9750      9753      9750      9753      9754      9750      9753      9755
      9750      9753      9756      9754      9753      9755      9754      9753      9756
      9755      9753      9756      9753      9756      9757      9753      9756      9758
      9753      9756      9759      9757      9756      9758      9757      9756      9759
      9758      9756      9759      9756      9759      9760      9756      9759      9761
      9756      9759      9762      9760      9759      9761      9760      9759      9762
      9761      9759      9762      9759      9762      9763      9759      9762      9764
      9759      9762      9765      9763      9762      9764      9763      9762      9765
      9764      9762      9765      9762      9765      9766      9762      9765      9767
      9762      9765      9768      9766      9765      9767      9766      9765      9768
      9767      9765      9768      9765      9768      9769      9765      9768      9770
      9765      9768      9771      9769      9768      9770      9769      9768      9771
      9770      9768      9771      9768      9771      9772      9768      9771      9773
      9768      9771      9774      9772      9771      9773      9772      9771      9774
      9773      9771      9774      9776      9775      9779      9776      9775      9783
      9776      9775      9787      9779      9775      9783      9779      9775      9787
      9783      9775      9787      9775      9776      9777      9775      9776      9778
      9775      9776      9791      9777      9776      9778      9777      9776      9791
      9778      9776      9791      9775      9779      9780      9775      9779      9781
      9775      9779      9782      9780      9779      9781      9780      9779      9782
      9781      9779      9782      9775      9783      9784      9775      9783      9785
      9775      9783      9786      9784      9783      9785      9784      9783      9786
      9785      9783      9786      9775      9787      9788      9775      9787      9789
      9775      9787      9790      9788      9787      9789      9788      9787      9790
      9789      9787      9790      9776      9791      9792      9776      9791      9793
      9776      9791      9797      9792      9791      9793      9792      9791      9797
      9793      9791      9797      9795      9794      9796      9795      9794      9797
      9795      9794      9798      9796      9794      9797      9796      9794      9798
      9797      9794      9798      9791      9797      9794      9794      9798      9799
      9798      9799      9800      9798      9799      9801      9798      9799      9802
      9800      9799      9801      9800      9799      9802      9801      9799      9802
      9799      9802      9803      9799      9802      9804      9799      9802      9810
      9803      9802      9804      9803      9802      9810      9804      9802      9810
      9802      9804      9805      9804      9805      9806      9804      9805      9807
      9806      9805      9807      9805      9807      9808      9805      9807      9809
      9805      9807      9819      9808      9807      9809      9808      9807      9819
      9809      9807      9819      9802      9810      9811      9802      9810      9812
      9802      9810      9813      9811      9810      9812      9811      9810      9813
      9812      9810      9813      9810      9813      9814      9813      9814      9815
      9813      9814      9816      9815      9814      9816      9814      9816      9817
      9814      9816      9818      9814      9816      9866      9817      9816      9818
      9817      9816      9866      9818      9816      9866      9807      9819      9820
      9807      9819      9821      9807      9819      9822      9820      9819      9821
      9820      9819      9822      9821      9819      9822      9819      9822      9823
      9819      9822      9824      9819      9822      9825      9823      9822      9824
      9823      9822      9825      9824      9822      9825      9822      9825      9826
      9822      9825      9827      9822      9825      9828      9826      9825      9827
      9826      9825      9828      9827      9825      9828      9825      9828      9829
      9825      9828      9830      9825      9828      9831      9829      9828      9830
      9829      9828      9831      9830      9828      9831      9828      9831      9832
      9828      9831      9833      9828      9831      9834      9832      9831      9833
      9832      9831      9834      9833      9831      9834      9831      9834      9835
      9831      9834      9836      9831      9834      9837      9835      9834      9836
      9835      9834      9837      9836      9834      9837      9834      9837      9838
      9834      9837      9839      9838      9837      9839      9837      9839      9840
      9837      9839      9841      9840      9839      9841      9839      9841      9842
      9839      9841      9843      9839      9841      9844      9842      9841      9843
      9842      9841      9844      9843      9841      9844      9841      9844      9845
      9841      9844      9846      9841      9844      9847      9845      9844      9846
      9845      9844      9847      9846      9844      9847      9844      9847      9848
      9844      9847      9849      9844      9847      9850      9848      9847      9849
      9848      9847      9850      9849      9847      9850      9847      9850      9851
      9847      9850      9852      9847      9850      9853      9851      9850      9852
      9851      9850      9853      9852      9850      9853      9850      9853      9854
      9850      9853      9855      9850      9853      9856      9854      9853      9855
      9854      9853      9856      9855      9853      9856      9853      9856      9857
      9853      9856      9858      9853      9856      9859      9857      9856      9858
      9857      9856      9859      9858      9856      9859      9856      9859      9860
      9856      9859      9861      9856      9859      9862      9860      9859      9861
      9860      9859      9862      9861      9859      9862      9859      9862      9863
      9859      9862      9864      9859      9862      9865      9863      9862      9864
      9863      9862      9865      9864      9862      9865      9816      9866      9867
      9816      9866      9868      9816      9866      9869      9867      9866      9868
      9867      9866      9869      9868      9866      9869      9866      9869      9870
      9866      9869      9871      9866      9869      9872      9870      9869      9871
      9870      9869      9872      9871      9869      9872      9869      9872      9873
      9869      9872      9874      9869      9872      9875      9873      9872      9874
      9873      9872      9875      9874      9872      9875      9872      9875      9876
      9872      9875      9877      9872      9875      9878      9876      9875      9877
      9876      9875      9878      9877      9875      9878      9875      9878      9879
      9875      9878      9880      9875      9878      9881      9879      9878      9880
      9879      9878      9881      9880      9878      9881      9878      9881      9882
      9878      9881      9883      9878      9881      9884      9882      9881      9883
      9882      9881      9884      9883      9881      9884      9881      9884      9885
      9881      9884      9886      9881      9884      9887      9885      9884      9886
      9885      9884      9887      9886      9884      9887      9884      9887      9888
      9884      9887      9889      9884      9887      9890      9888      9887      9889
      9888      9887      9890      9889      9887      9890      9887      9890      9891
      9887      9890      9892      9887      9890      9893      9891      9890      9892
      9891      9890      9893      9892      9890      9893      9890      9893      9894
      9890      9893      9895      9890      9893      9896      9894      9893      9895
      9894      9893      9896      9895      9893      9896      9893      9896      9897
      9893      9896      9898      9893      9896      9899      9897      9896      9898
      9897      9896      9899      9898      9896      9899      9896      9899      9900
      9896      9899      9901      9896      9899      9902      9900      9899      9901
      9900      9899      9902      9901      9899      9902      9899      9902      9903
      9899      9902      9904      9899      9902      9905      9903      9902      9904
      9903      9902      9905      9904      9902      9905      9902      9905      9906
      9902      9905      9907      9902      9905      9908      9906      9905      9907
      9906      9905      9908      9907      9905      9908      9910      9909      9913
      9910      9909      9917      9910      9909      9921      9913      9909      9917
      9913      9909      9921      9917      9909      9921      9909      9910      9911
      9909      9910      9912      9909      9910      9925      9911      9910      9912
      9911      9910      9925      9912      9910      9925      9909      9913      9914
      9909      9913      9915      9909      9913      9916      9914      9913      9915
      9914      9913      9916      9915      9913      9916      9909      9917      9918
      9909      9917      9919      9909      9917      9920      9918      9917      9919
      9918      9917      9920      9919      9917      9920      9909      9921      9922
      9909      9921      9923      9909      9921      9924      9922      9921      9923
      9922      9921      9924      9923      9921      9924      9910      9925      9926
      9910      9925      9927      9910      9925      9931      9926      9925      9927
      9926      9925      9931      9927      9925      9931      9929      9928      9930
      9929      9928      9931      9929      9928      9932      9930      9928      9931
      9930      9928      9932      9931      9928      9932      9925      9931      9928
      9928      9932      9933      9932      9933      9934      9932      9933      9935
      9932      9933      9936      9934      9933      9935      9934      9933      9936
      9935      9933      9936      9933      9936      9937      9933      9936      9938
      9933      9936      9944      9937      9936      9938      9937      9936      9944
      9938      9936      9944      9936      9938      9939      9938      9939      9940
      9938      9939      9941      9940      9939      9941      9939      9941      9942
      9939      9941      9943      9939      9941      9953      9942      9941      9943
      9942      9941      9953      9943      9941      9953      9936      9944      9945
      9936      9944      9946      9936      9944      9947      9945      9944      9946
      9945      9944      9947      9946      9944      9947      9944      9947      9948
      9947      9948      9949      9947      9948      9950      9949      9948      9950
      9948      9950      9951      9948      9950      9952      9948      9950     10000
      9951      9950      9952      9951      9950     10000      9952      9950     10000
      9941      9953      9954      9941      9953      9955      9941      9953      9956
      9954      9953      9955      9954      9953      9956      9955      9953      9956
      9953      9956      9957      9953      9956      9958      9953      9956      9959
      9957      9956      9958      9957      9956      9959      9958      9956      9959
      9956      9959      9960      9956      9959      9961      9956      9959      9962
      9960      9959      9961      9960      9959      9962      9961      9959      9962
      9959      9962      9963      9959      9962      9964      9959      9962      9965
      9963      9962      9964      9963      9962      9965      9964      9962      9965
      9962      9965      9966      9962      9965      9967      9962      9965      9968
      9966      9965      9967      9966      9965      9968      9967      9965      9968
      9965      9968      9969      9965      9968      9970      9965      9968      9971
      9969      9968      9970      9969      9968      9971      9970      9968      9971
      9968      9971      9972      9968      9971      9973      9972      9971      9973
      9971      9973      9974      9971      9973      9975      9974      9973      9975
      9973      9975      9976      9973      9975      9977      9973      9975      9978
      9976      9975      9977      9976      9975      9978      9977      9975      9978
      9975      9978      9979      9975      9978      9980      9975      9978      9981
      9979      9978      9980      9979      9978      9981      9980      9978      9981
      9978      9981      9982      9978      9981      9983      9978      9981      9984
      9982      9981      9983      9982      9981      9984      9983      9981      9984
      9981      9984      9985      9981      9984      9986      9981      9984      9987
      9985      9984      9986      9985      9984      9987      9986      9984      9987
      9984      9987      9988      9984      9987      9989      9984      9987      9990
      9988      9987      9989      9988      9987      9990      9989      9987      9990
      9987      9990      9991      9987      9990      9992      9987      9990      9993
      9991      9990      9992      9991      9990      9993      9992      9990      9993
      9990      9993      9994      9990      9993      9995      9990      9993      9996
      9994      9993      9995      9994      9993      9996      9995      9993      9996
      9993      9996      9997      9993      9996      9998      9993      9996      9999
      9997      9996      9998      9997      9996      9999      9998      9996      9999
      9950     10000     10001      9950     10000     10002      9950     10000     10003
     10001     10000     10002     10001     10000     10003     10002     10000     10003
     10000     10003     10004     10000     10003     10005     10000     10003     10006
     10004     10003     10005     10004     10003     10006     10005     10003     10006
     10003     10006     10007     10003     10006     10008     10003     10006     10009
     10007     10006     10008     10007     10006     10009     10008     10006     10009
     10006     10009     10010     10006     10009     10011     10006     10009     10012
     10010     10009     10011     10010     10009     10012     10011     10009     10012
     10009     10012     10013     10009     10012     10014     10009     10012     10015
     10013     10012     10014     10013     10012     10015     10014     10012     10015
     10012     10015     10016     10012     10015     10017     10012     10015     10018
     10016     10015     10017     10016     10015     10018     10017     10015     10018
     10015     10018     10019     10015     10018     10020     10015     10018     10021
     10019     10018     10020     10019     10018     10021     10020     10018     10021
     10018     10021     10022     10018     10021     10023     10018     10021     10024
     10022     10021     10023     10022     10021     10024     10023     10021     10024
     10021     10024     10025     10021     10024     10026     10021     10024     10027
     10025     10024     10026     10025     10024     10027     10026     10024     10027
     10024     10027     10028     10024     10027     10029     10024     10027     10030
     10028     10027     10029     10028     10027     10030     10029     10027     10030
     10027     10030     10031     10027     10030     10032     10027     10030     10033
     10031     10030     10032     10031     10030     10033     10032     10030     10033
     10030     10033     10034     10030     10033     10035     10030     10033     10036
     10034     10033     10035     10034     10033     10036     10035     10033     10036
     10033     10036     10037     10033     10036     10038     10033     10036     10039
     10037     10036     10038     10037     10036     10039     10038     10036     10039
     10036     10039     10040     10036     10039     10041     10036     10039     10042
     10040     10039     10041     10040     10039     10042     10041     10039     10042
     10044     10043     10047     10044     10043     10051     10044     10043     10055
     10047     10043     10051     10047     10043     10055     10051     10043     10055
     10043     10044     10045     10043     10044     10046     10043     10044     10059
     10045     10044     10046     10045     10044     10059     10046     10044     10059
     10043     10047     10048     10043     10047     10049     10043     10047     10050
     10048     10047     10049     10048     10047     10050     10049     10047     10050
     10043     10051     10052     10043     10051     10053     10043     10051     10054
     10052     10051     10053     10052     10051     10054     10053     10051     10054
     10043     10055     10056     10043     10055     10057     10043     10055     10058
     10056     10055     10057     10056     10055     10058     10057     10055     10058
     10044     10059     10060     10044     10059     10061     10044     10059     10065
     10060     10059     10061     10060     10059     10065     10061     10059     10065
     10063     10062     10064     10063     10062     10065     10063     10062     10066
     10064     10062     10065     10064     10062     10066     10065     10062     10066
     10059     10065     10062     10062     10066     10067     10066     10067     10068
     10066     10067     10069     10066     10067     10070     10068     10067     10069
     10068     10067     10070     10069     10067     10070     10067     10070     10071
     10067     10070     10072     10067     10070     10078     10071     10070     10072
     10071     10070     10078     10072     10070     10078     10070     10072     10073
     10072     10073     10074     10072     10073     10075     10074     10073     10075
     10073     10075     10076     10073     10075     10077     10073     10075     10087
     10076     10075     10077     10076     10075     10087     10077     10075     10087
     10070     10078     10079     10070     10078     10080     10070     10078     10081
     10079     10078     10080     10079     10078     10081     10080     10078     10081
     10078     10081     10082     10081     10082     10083     10081     10082     10084
     10083     10082     10084     10082     10084     10085     10082     10084     10086
     10082     10084     10134     10085     10084     10086     10085     10084     10134
     10086     10084     10134     10075     10087     10088     10075     10087     10089
     10075     10087     10090     10088     10087     10089     10088     10087     10090
     10089     10087     10090     10087     10090     10091     10087     10090     10092
     10087     10090     10093     10091     10090     10092     10091     10090     10093
     10092     10090     10093     10090     10093     10094     10090     10093     10095
     10090     10093     10096     10094     10093     10095     10094     10093     10096
     10095     10093     10096     10093     10096     10097     10093     10096     10098
     10093     10096     10099     10097     10096     10098     10097     10096     10099
     10098     10096     10099     10096     10099     10100     10096     10099     10101
     10096     10099     10102     10100     10099     10101     10100     10099     10102
     10101     10099     10102     10099     10102     10103     10099     10102     10104
     10099     10102     10105     10103     10102     10104     10103     10102     10105
     10104     10102     10105     10102     10105     10106     10102     10105     10107
     10106     10105     10107     10105     10107     10108     10105     10107     10109
     10108     10107     10109     10107     10109     10110     10107     10109     10111
     10107     10109     10112     10110     10109     10111     10110     10109     10112
     10111     10109     10112     10109     10112     10113     10109     10112     10114
     10109     10112     10115     10113     10112     10114     10113     10112     10115
     10114     10112     10115     10112     10115     10116     10112     10115     10117
     10112     10115     10118     10116     10115     10117     10116     10115     10118
     10117     10115     10118     10115     10118     10119     10115     10118     10120
     10115     10118     10121     10119     10118     10120     10119     10118     10121
     10120     10118     10121     10118     10121     10122     10118     10121     10123
     10118     10121     10124     10122     10121     10123     10122     10121     10124
     10123     10121     10124     10121     10124     10125     10121     10124     10126
     10121     10124     10127     10125     10124     10126     10125     10124     10127
     10126     10124     10127     10124     10127     10128     10124     10127     10129
     10124     10127     10130     10128     10127     10129     10128     10127     10130
     10129     10127     10130     10127     10130     10131     10127     10130     10132
     10127     10130     10133     10131     10130     10132     10131     10130     10133
     10132     10130     10133     10084     10134     10135     10084     10134     10136
     10084     10134     10137     10135     10134     10136     10135     10134     10137
     10136     10134     10137     10134     10137     10138     10134     10137     10139
     10134     10137     10140     10138     10137     10139     10138     10137     10140
     10139     10137     10140     10137     10140     10141     10137     10140     10142
     10137     10140     10143     10141     10140     10142     10141     10140     10143
     10142     10140     10143     10140     10143     10144     10140     10143     10145
     10140     10143     10146     10144     10143     10145     10144     10143     10146
     10145     10143     10146     10143     10146     10147     10143     10146     10148
     10143     10146     10149     10147     10146     10148     10147     10146     10149
     10148     10146     10149     10146     10149     10150     10146     10149     10151
     10146     10149     10152     10150     10149     10151     10150     10149     10152
     10151     10149     10152     10149     10152     10153     10149     10152     10154
     10149     10152     10155     10153     10152     10154     10153     10152     10155
     10154     10152     10155     10152     10155     10156     10152     10155     10157
     10152     10155     10158     10156     10155     10157     10156     10155     10158
     10157     10155     10158     10155     10158     10159     10155     10158     10160
     10155     10158     10161     10159     10158     10160     10159     10158     10161
     10160     10158     10161     10158     10161     10162     10158     10161     10163
     10158     10161     10164     10162     10161     10163     10162     10161     10164
     10163     10161     10164     10161     10164     10165     10161     10164     10166
     10161     10164     10167     10165     10164     10166     10165     10164     10167
     10166     10164     10167     10164     10167     10168     10164     10167     10169
     10164     10167     10170     10168     10167     10169     10168     10167     10170
     10169     10167     10170     10167     10170     10171     10167     10170     10172
     10167     10170     10173     10171     10170     10172     10171     10170     10173
     10172     10170     10173     10170     10173     10174     10170     10173     10175
     10170     10173     10176     10174     10173     10175     10174     10173     10176
     10175     10173     10176     10178     10177     10181     10178     10177     10185
     10178     10177     10189     10181     10177     10185     10181     10177     10189
     10185     10177     10189     10177     10178     10179     10177     10178     10180
     10177     10178     10193     10179     10178     10180     10179     10178     10193
     10180     10178     10193     10177     10181     10182     10177     10181     10183
     10177     10181     10184     10182     10181     10183     10182     10181     10184
     10183     10181     10184     10177     10185     10186     10177     10185     10187
     10177     10185     10188     10186     10185     10187     10186     10185     10188
     10187     10185     10188     10177     10189     10190     10177     10189     10191
     10177     10189     10192     10190     10189     10191     10190     10189     10192
     10191     10189     10192     10178     10193     10194     10178     10193     10195
     10178     10193     10199     10194     10193     10195     10194     10193     10199
     10195     10193     10199     10197     10196     10198     10197     10196     10199
     10197     10196     10200     10198     10196     10199     10198     10196     10200
     10199     10196     10200     10193     10199     10196     10196     10200     10201
     10200     10201     10202     10200     10201     10203     10200     10201     10204
     10202     10201     10203     10202     10201     10204     10203     10201     10204
     10201     10204     10205     10201     10204     10206     10201     10204     10212
     10205     10204     10206     10205     10204     10212     10206     10204     10212
     10204     10206     10207     10206     10207     10208     10206     10207     10209
     10208     10207     10209     10207     10209     10210     10207     10209     10211
     10207     10209     10221     10210     10209     10211     10210     10209     10221
     10211     10209     10221     10204     10212     10213     10204     10212     10214
     10204     10212     10215     10213     10212     10214     10213     10212     10215
     10214     10212     10215     10212     10215     10216     10215     10216     10217
     10215     10216     10218     10217     10216     10218     10216     10218     10219
     10216     10218     10220     10216     10218     10268     10219     10218     10220
     10219     10218     10268     10220     10218     10268     10209     10221     10222
     10209     10221     10223     10209     10221     10224     10222     10221     10223
     10222     10221     10224     10223     10221     10224     10221     10224     10225
     10221     10224     10226     10221     10224     10227     10225     10224     10226
     10225     10224     10227     10226     10224     10227     10224     10227     10228
     10224     10227     10229     10224     10227     10230     10228     10227     10229
     10228     10227     10230     10229     10227     10230     10227     10230     10231
     10227     10230     10232     10227     10230     10233     10231     10230     10232
     10231     10230     10233     10232     10230     10233     10230     10233     10234
     10230     10233     10235     10230     10233     10236     10234     10233     10235
     10234     10233     10236     10235     10233     10236     10233     10236     10237
     10233     10236     10238     10233     10236     10239     10237     10236     10238
     10237     10236     10239     10238     10236     10239     10236     10239     10240
     10236     10239     10241     10240     10239     10241     10239     10241     10242
     10239     10241     10243     10242     10241     10243     10241     10243     10244
     10241     10243     10245     10241     10243     10246     10244     10243     10245
     10244     10243     10246     10245     10243     10246     10243     10246     10247
     10243     10246     10248     10243     10246     10249     10247     10246     10248
     10247     10246     10249     10248     10246     10249     10246     10249     10250
     10246     10249     10251     10246     10249     10252     10250     10249     10251
     10250     10249     10252     10251     10249     10252     10249     10252     10253
     10249     10252     10254     10249     10252     10255     10253     10252     10254
     10253     10252     10255     10254     10252     10255     10252     10255     10256
     10252     10255     10257     10252     10255     10258     10256     10255     10257
     10256     10255     10258     10257     10255     10258     10255     10258     10259
     10255     10258     10260     10255     10258     10261     10259     10258     10260
     10259     10258     10261     10260     10258     10261     10258     10261     10262
     10258     10261     10263     10258     10261     10264     10262     10261     10263
     10262     10261     10264     10263     10261     10264     10261     10264     10265
     10261     10264     10266     10261     10264     10267     10265     10264     10266
     10265     10264     10267     10266     10264     10267     10218     10268     10269
     10218     10268     10270     10218     10268     10271     10269     10268     10270
     10269     10268     10271     10270     10268     10271     10268     10271     10272
     10268     10271     10273     10268     10271     10274     10272     10271     10273
     10272     10271     10274     10273     10271     10274     10271     10274     10275
     10271     10274     10276     10271     10274     10277     10275     10274     10276
     10275     10274     10277     10276     10274     10277     10274     10277     10278
     10274     10277     10279     10274     10277     10280     10278     10277     10279
     10278     10277     10280     10279     10277     10280     10277     10280     10281
     10277     10280     10282     10277     10280     10283     10281     10280     10282
     10281     10280     10283     10282     10280     10283     10280     10283     10284
     10280     10283     10285     10280     10283     10286     10284     10283     10285
     10284     10283     10286     10285     10283     10286     10283     10286     10287
     10283     10286     10288     10283     10286     10289     10287     10286     10288
     10287     10286     10289     10288     10286     10289     10286     10289     10290
     10286     10289     10291     10286     10289     10292     10290     10289     10291
     10290     10289     10292     10291     10289     10292     10289     10292     10293
     10289     10292     10294     10289     10292     10295     10293     10292     10294
     10293     10292     10295     10294     10292     10295     10292     10295     10296
     10292     10295     10297     10292     10295     10298     10296     10295     10297
     10296     10295     10298     10297     10295     10298     10295     10298     10299
     10295     10298     10300     10295     10298     10301     10299     10298     10300
     10299     10298     10301     10300     10298     10301     10298     10301     10302
     10298     10301     10303     10298     10301     10304     10302     10301     10303
     10302     10301     10304     10303     10301     10304     10301     10304     10305
     10301     10304     10306     10301     10304     10307     10305     10304     10306
     10305     10304     10307     10306     10304     10307     10304     10307     10308
     10304     10307     10309     10304     10307     10310     10308     10307     10309
     10308     10307     10310     10309     10307     10310     10312     10311     10315
     10312     10311     10319     10312     10311     10323     10315     10311     10319
     10315     10311     10323     10319     10311     10323     10311     10312     10313
     10311     10312     10314     10311     10312     10327     10313     10312     10314
     10313     10312     10327     10314     10312     10327     10311     10315     10316
     10311     10315     10317     10311     10315     10318     10316     10315     10317
     10316     10315     10318     10317     10315     10318     10311     10319     10320
     10311     10319     10321     10311     10319     10322     10320     10319     10321
     10320     10319     10322     10321     10319     10322     10311     10323     10324
     10311     10323     10325     10311     10323     10326     10324     10323     10325
     10324     10323     10326     10325     10323     10326     10312     10327     10328
     10312     10327     10329     10312     10327     10333     10328     10327     10329
     10328     10327     10333     10329     10327     10333     10331     10330     10332
     10331     10330     10333     10331     10330     10334     10332     10330     10333
     10332     10330     10334     10333     10330     10334     10327     10333     10330
     10330     10334     10335     10334     10335     10336     10334     10335     10337
     10334     10335     10338     10336     10335     10337     10336     10335     10338
     10337     10335     10338     10335     10338     10339     10335     10338     10340
     10335     10338     10346     10339     10338     10340     10339     10338     10346
     10340     10338     10346     10338     10340     10341     10340     10341     10342
     10340     10341     10343     10342     10341     10343     10341     10343     10344
     10341     10343     10345     10341     10343     10355     10344     10343     10345
     10344     10343     10355     10345     10343     10355     10338     10346     10347
     10338     10346     10348     10338     10346     10349     10347     10346     10348
     10347     10346     10349     10348     10346     10349     10346     10349     10350
     10349     10350     10351     10349     10350     10352     10351     10350     10352
     10350     10352     10353     10350     10352     10354     10350     10352     10402
     10353     10352     10354     10353     10352     10402     10354     10352     10402
     10343     10355     10356     10343     10355     10357     10343     10355     10358
     10356     10355     10357     10356     10355     10358     10357     10355     10358
     10355     10358     10359     10355     10358     10360     10355     10358     10361
     10359     10358     10360     10359     10358     10361     10360     10358     10361
     10358     10361     10362     10358     10361     10363     10358     10361     10364
     10362     10361     10363     10362     10361     10364     10363     10361     10364
     10361     10364     10365     10361     10364     10366     10361     10364     10367
     10365     10364     10366     10365     10364     10367     10366     10364     10367
     10364     10367     10368     10364     10367     10369     10364     10367     10370
     10368     10367     10369     10368     10367     10370     10369     10367     10370
     10367     10370     10371     10367     10370     10372     10367     10370     10373
     10371     10370     10372     10371     10370     10373     10372     10370     10373
     10370     10373     10374     10370     10373     10375     10374     10373     10375
     10373     10375     10376     10373     10375     10377     10376     10375     10377
     10375     10377     10378     10375     10377     10379     10375     10377     10380
     10378     10377     10379     10378     10377     10380     10379     10377     10380
     10377     10380     10381     10377     10380     10382     10377     10380     10383
     10381     10380     10382     10381     10380     10383     10382     10380     10383
     10380     10383     10384     10380     10383     10385     10380     10383     10386
     10384     10383     10385     10384     10383     10386     10385     10383     10386
     10383     10386     10387     10383     10386     10388     10383     10386     10389
     10387     10386     10388     10387     10386     10389     10388     10386     10389
     10386     10389     10390     10386     10389     10391     10386     10389     10392
     10390     10389     10391     10390     10389     10392     10391     10389     10392
     10389     10392     10393     10389     10392     10394     10389     10392     10395
     10393     10392     10394     10393     10392     10395     10394     10392     10395
     10392     10395     10396     10392     10395     10397     10392     10395     10398
     10396     10395     10397     10396     10395     10398     10397     10395     10398
     10395     10398     10399     10395     10398     10400     10395     10398     10401
     10399     10398     10400     10399     10398     10401     10400     10398     10401
     10352     10402     10403     10352     10402     10404     10352     10402     10405
     10403     10402     10404     10403     10402     10405     10404     10402     10405
     10402     10405     10406     10402     10405     10407     10402     10405     10408
     10406     10405     10407     10406     10405     10408     10407     10405     10408
     10405     10408     10409     10405     10408     10410     10405     10408     10411
     10409     10408     10410     10409     10408     10411     10410     10408     10411
     10408     10411     10412     10408     10411     10413     10408     10411     10414
     10412     10411     10413     10412     10411     10414     10413     10411     10414
     10411     10414     10415     10411     10414     10416     10411     10414     10417
     10415     10414     10416     10415     10414     10417     10416     10414     10417
     10414     10417     10418     10414     10417     10419     10414     10417     10420
     10418     10417     10419     10418     10417     10420     10419     10417     10420
     10417     10420     10421     10417     10420     10422     10417     10420     10423
     10421     10420     10422     10421     10420     10423     10422     10420     10423
     10420     10423     10424     10420     10423     10425     10420     10423     10426
     10424     10423     10425     10424     10423     10426     10425     10423     10426
     10423     10426     10427     10423     10426     10428     10423     10426     10429
     10427     10426     10428     10427     10426     10429     10428     10426     10429
     10426     10429     10430     10426     10429     10431     10426     10429     10432
     10430     10429     10431     10430     10429     10432     10431     10429     10432
     10429     10432     10433     10429     10432     10434     10429     10432     10435
     10433     10432     10434     10433     10432     10435     10434     10432     10435
     10432     10435     10436     10432     10435     10437     10432     10435     10438
     10436     10435     10437     10436     10435     10438     10437     10435     10438
     10435     10438     10439     10435     10438     10440     10435     10438     10441
     10439     10438     10440     10439     10438     10441     10440     10438     10441
     10438     10441     10442     10438     10441     10443     10438     10441     10444
     10442     10441     10443     10442     10441     10444     10443     10441     10444
     10446     10445     10449     10446     10445     10453     10446     10445     10457
     10449     10445     10453     10449     10445     10457     10453     10445     10457
     10445     10446     10447     10445     10446     10448     10445     10446     10461
     10447     10446     10448     10447     10446     10461     10448     10446     10461
     10445     10449     10450     10445     10449     10451     10445     10449     10452
     10450     10449     10451     10450     10449     10452     10451     10449     10452
     10445     10453     10454     10445     10453     10455     10445     10453     10456
     10454     10453     10455     10454     10453     10456     10455     10453     10456
     10445     10457     10458     10445     10457     10459     10445     10457     10460
     10458     10457     10459     10458     10457     10460     10459     10457     10460
     10446     10461     10462     10446     10461     10463     10446     10461     10467
     10462     10461     10463     10462     10461     10467     10463     10461     10467
     10465     10464     10466     10465     10464     10467     10465     10464     10468
     10466     10464     10467     10466     10464     10468     10467     10464     10468
     10461     10467     10464     10464     10468     10469     10468     10469     10470
     10468     10469     10471     10468     10469     10472     10470     10469     10471
     10470     10469     10472     10471     10469     10472     10469     10472     10473
     10469     10472     10474     10469     10472     10480     10473     10472     10474
     10473     10472     10480     10474     10472     10480     10472     10474     10475
     10474     10475     10476     10474     10475     10477     10476     10475     10477
     10475     10477     10478     10475     10477     10479     10475     10477     10489
     10478     10477     10479     10478     10477     10489     10479     10477     10489
     10472     10480     10481     10472     10480     10482     10472     10480     10483
     10481     10480     10482     10481     10480     10483     10482     10480     10483
     10480     10483     10484     10483     10484     10485     10483     10484     10486
     10485     10484     10486     10484     10486     10487     10484     10486     10488
     10484     10486     10536     10487     10486     10488     10487     10486     10536
     10488     10486     10536     10477     10489     10490     10477     10489     10491
     10477     10489     10492     10490     10489     10491     10490     10489     10492
     10491     10489     10492     10489     10492     10493     10489     10492     10494
     10489     10492     10495     10493     10492     10494     10493     10492     10495
     10494     10492     10495     10492     10495     10496     10492     10495     10497
     10492     10495     10498     10496     10495     10497     10496     10495     10498
     10497     10495     10498     10495     10498     10499     10495     10498     10500
     10495     10498     10501     10499     10498     10500     10499     10498     10501
     10500     10498     10501     10498     10501     10502     10498     10501     10503
     10498     10501     10504     10502     10501     10503     10502     10501     10504
     10503     10501     10504     10501     10504     10505     10501     10504     10506
     10501     10504     10507     10505     10504     10506     10505     10504     10507
     10506     10504     10507     10504     10507     10508     10504     10507     10509
     10508     10507     10509     10507     10509     10510     10507     10509     10511
     10510     10509     10511     10509     10511     10512     10509     10511     10513
     10509     10511     10514     10512     10511     10513     10512     10511     10514
     10513     10511     10514     10511     10514     10515     10511     10514     10516
     10511     10514     10517     10515     10514     10516     10515     10514     10517
     10516     10514     10517     10514     10517     10518     10514     10517     10519
     10514     10517     10520     10518     10517     10519     10518     10517     10520
     10519     10517     10520     10517     10520     10521     10517     10520     10522
     10517     10520     10523     10521     10520     10522     10521     10520     10523
     10522     10520     10523     10520     10523     10524     10520     10523     10525
     10520     10523     10526     10524     10523     10525     10524     10523     10526
     10525     10523     10526     10523     10526     10527     10523     10526     10528
     10523     10526     10529     10527     10526     10528     10527     10526     10529
     10528     10526     10529     10526     10529     10530     10526     10529     10531
     10526     10529     10532     10530     10529     10531     10530     10529     10532
     10531     10529     10532     10529     10532     10533     10529     10532     10534
     10529     10532     10535     10533     10532     10534     10533     10532     10535
     10534     10532     10535     10486     10536     10537     10486     10536     10538
     10486     10536     10539     10537     10536     10538     10537     10536     10539
     10538     10536     10539     10536     10539     10540     10536     10539     10541
     10536     10539     10542     10540     10539     10541     10540     10539     10542
     10541     10539     10542     10539     10542     10543     10539     10542     10544
     10539     10542     10545     10543     10542     10544     10543     10542     10545
     10544     10542     10545     10542     10545     10546     10542     10545     10547
     10542     10545     10548     10546     10545     10547     10546     10545     10548
     10547     10545     10548     10545     10548     10549     10545     10548     10550
     10545     10548     10551     10549     10548     10550     10549     10548     10551
     10550     10548     10551     10548     10551     10552     10548     10551     10553
     10548     10551     10554     10552     10551     10553     10552     10551     10554
     10553     10551     10554     10551     10554     10555     10551     10554     10556
     10551     10554     10557     10555     10554     10556     10555     10554     10557
     10556     10554     10557     10554     10557     10558     10554     10557     10559
     10554     10557     10560     10558     10557     10559     10558     10557     10560
     10559     10557     10560     10557     10560     10561     10557     10560     10562
     10557     10560     10563     10561     10560     10562     10561     10560     10563
     10562     10560     10563     10560     10563     10564     10560     10563     10565
     10560     10563     10566     10564     10563     10565     10564     10563     10566
     10565     10563     10566     10563     10566     10567     10563     10566     10568
     10563     10566     10569     10567     10566     10568     10567     10566     10569
     10568     10566     10569     10566     10569     10570     10566     10569     10571
     10566     10569     10572     10570     10569     10571     10570     10569     10572
     10571     10569     10572     10569     10572     10573     10569     10572     10574
     10569     10572     10575     10573     10572     10574     10573     10572     10575
     10574     10572     10575     10572     10575     10576     10572     10575     10577
     10572     10575     10578     10576     10575     10577     10576     10575     10578
     10577     10575     10578     10580     10579     10583     10580     10579     10587
     10580     10579     10591     10583     10579     10587     10583     10579     10591
     10587     10579     10591     10579     10580     10581     10579     10580     10582
     10579     10580     10595     10581     10580     10582     10581     10580     10595
     10582     10580     10595     10579     10583     10584     10579     10583     10585
     10579     10583     10586     10584     10583     10585     10584     10583     10586
     10585     10583     10586     10579     10587     10588     10579     10587     10589
     10579     10587     10590     10588     10587     10589     10588     10587     10590
     10589     10587     10590     10579     10591     10592     10579     10591     10593
     10579     10591     10594     10592     10591     10593     10592     10591     10594
     10593     10591     10594     10580     10595     10596     10580     10595     10597
     10580     10595     10601     10596     10595     10597     10596     10595     10601
     10597     10595     10601     10599     10598     10600     10599     10598     10601
     10599     10598     10602     10600     10598     10601     10600     10598     10602
     10601     10598     10602     10595     10601     10598     10598     10602     10603
     10602     10603     10604     10602     10603     10605     10602     10603     10606
     10604     10603     10605     10604     10603     10606     10605     10603     10606
     10603     10606     10607     10603     10606     10608     10603     10606     10614
     10607     10606     10608     10607     10606     10614     10608     10606     10614
     10606     10608     10609     10608     10609     10610     10608     10609     10611
     10610     10609     10611     10609     10611     10612     10609     10611     10613
     10609     10611     10623     10612     10611     10613     10612     10611     10623
     10613     10611     10623     10606     10614     10615     10606     10614     10616
     10606     10614     10617     10615     10614     10616     10615     10614     10617
     10616     10614     10617     10614     10617     10618     10617     10618     10619
     10617     10618     10620     10619     10618     10620     10618     10620     10621
     10618     10620     10622     10618     10620     10670     10621     10620     10622
     10621     10620     10670     10622     10620     10670     10611     10623     10624
     10611     10623     10625     10611     10623     10626     10624     10623     10625
     10624     10623     10626     10625     10623     10626     10623     10626     10627
     10623     10626     10628     10623     10626     10629     10627     10626     10628
     10627     10626     10629     10628     10626     10629     10626     10629     10630
     10626     10629     10631     10626     10629     10632     10630     10629     10631
     10630     10629     10632     10631     10629     10632     10629     10632     10633
     10629     10632     10634     10629     10632     10635     10633     10632     10634
     10633     10632     10635     10634     10632     10635     10632     10635     10636
     10632     10635     10637     10632     10635     10638     10636     10635     10637
     10636     10635     10638     10637     10635     10638     10635     10638     10639
     10635     10638     10640     10635     10638     10641     10639     10638     10640
     10639     10638     10641     10640     10638     10641     10638     10641     10642
     10638     10641     10643     10642     10641     10643     10641     10643     10644
     10641     10643     10645     10644     10643     10645     10643     10645     10646
     10643     10645     10647     10643     10645     10648     10646     10645     10647
     10646     10645     10648     10647     10645     10648     10645     10648     10649
     10645     10648     10650     10645     10648     10651     10649     10648     10650
     10649     10648     10651     10650     10648     10651     10648     10651     10652
     10648     10651     10653     10648     10651     10654     10652     10651     10653
     10652     10651     10654     10653     10651     10654     10651     10654     10655
     10651     10654     10656     10651     10654     10657     10655     10654     10656
     10655     10654     10657     10656     10654     10657     10654     10657     10658
     10654     10657     10659     10654     10657     10660     10658     10657     10659
     10658     10657     10660     10659     10657     10660     10657     10660     10661
     10657     10660     10662     10657     10660     10663     10661     10660     10662
     10661     10660     10663     10662     10660     10663     10660     10663     10664
     10660     10663     10665     10660     10663     10666     10664     10663     10665
     10664     10663     10666     10665     10663     10666     10663     10666     10667
     10663     10666     10668     10663     10666     10669     10667     10666     10668
     10667     10666     10669     10668     10666     10669     10620     10670     10671
     10620     10670     10672     10620     10670     10673     10671     10670     10672
     10671     10670     10673     10672     10670     10673     10670     10673     10674
     10670     10673     10675     10670     10673     10676     10674     10673     10675
     10674     10673     10676     10675     10673     10676     10673     10676     10677
     10673     10676     10678     10673     10676     10679     10677     10676     10678
     10677     10676     10679     10678     10676     10679     10676     10679     10680
     10676     10679     10681     10676     10679     10682     10680     10679     10681
     10680     10679     10682     10681     10679     10682     10679     10682     10683
     10679     10682     10684     10679     10682     10685     10683     10682     10684
     10683     10682     10685     10684     10682     10685     10682     10685     10686
     10682     10685     10687     10682     10685     10688     10686     10685     10687
     10686     10685     10688     10687     10685     10688     10685     10688     10689
     10685     10688     10690     10685     10688     10691     10689     10688     10690
     10689     10688     10691     10690     10688     10691     10688     10691     10692
     10688     10691     10693     10688     10691     10694     10692     10691     10693
     10692     10691     10694     10693     10691     10694     10691     10694     10695
     10691     10694     10696     10691     10694     10697     10695     10694     10696
     10695     10694     10697     10696     10694     10697     10694     10697     10698
     10694     10697     10699     10694     10697     10700     10698     10697     10699
     10698     10697     10700     10699     10697     10700     10697     10700     10701
     10697     10700     10702     10697     10700     10703     10701     10700     10702
     10701     10700     10703     10702     10700     10703     10700     10703     10704
     10700     10703     10705     10700     10703     10706     10704     10703     10705
     10704     10703     10706     10705     10703     10706     10703     10706     10707
     10703     10706     10708     10703     10706     10709     10707     10706     10708
     10707     10706     10709     10708     10706     10709     10706     10709     10710
     10706     10709     10711     10706     10709     10712     10710     10709     10711
     10710     10709     10712     10711     10709     10712     10714     10713     10717
     10714     10713     10721     10714     10713     10725     10717     10713     10721
     10717     10713     10725     10721     10713     10725     10713     10714     10715
     10713     10714     10716     10713     10714     10729     10715     10714     10716
     10715     10714     10729     10716     10714     10729     10713     10717     10718
     10713     10717     10719     10713     10717     10720     10718     10717     10719
     10718     10717     10720     10719     10717     10720     10713     10721     10722
     10713     10721     10723     10713     10721     10724     10722     10721     10723
     10722     10721     10724     10723     10721     10724     10713     10725     10726
     10713     10725     10727     10713     10725     10728     10726     10725     10727
     10726     10725     10728     10727     10725     10728     10714     10729     10730
     10714     10729     10731     10714     10729     10735     10730     10729     10731
     10730     10729     10735     10731     10729     10735     10733     10732     10734
     10733     10732     10735     10733     10732     10736     10734     10732     10735
     10734     10732     10736     10735     10732     10736     10729     10735     10732
     10732     10736     10737     10736     10737     10738     10736     10737     10739
     10736     10737     10740     10738     10737     10739     10738     10737     10740
     10739     10737     10740     10737     10740     10741     10737     10740     10742
     10737     10740     10748     10741     10740     10742     10741     10740     10748
     10742     10740     10748     10740     10742     10743     10742     10743     10744
     10742     10743     10745     10744     10743     10745     10743     10745     10746
     10743     10745     10747     10743     10745     10757     10746     10745     10747
     10746     10745     10757     10747     10745     10757     10740     10748     10749
     10740     10748     10750     10740     10748     10751     10749     10748     10750
     10749     10748     10751     10750     10748     10751     10748     10751     10752
     10751     10752     10753     10751     10752     10754     10753     10752     10754
     10752     10754     10755     10752     10754     10756     10752     10754     10804
     10755     10754     10756     10755     10754     10804     10756     10754     10804
     10745     10757     10758     10745     10757     10759     10745     10757     10760
     10758     10757     10759     10758     10757     10760     10759     10757     10760
     10757     10760     10761     10757     10760     10762     10757     10760     10763
     10761     10760     10762     10761     10760     10763     10762     10760     10763
     10760     10763     10764     10760     10763     10765     10760     10763     10766
     10764     10763     10765     10764     10763     10766     10765     10763     10766
     10763     10766     10767     10763     10766     10768     10763     10766     10769
     10767     10766     10768     10767     10766     10769     10768     10766     10769
     10766     10769     10770     10766     10769     10771     10766     10769     10772
     10770     10769     10771     10770     10769     10772     10771     10769     10772
     10769     10772     10773     10769     10772     10774     10769     10772     10775
     10773     10772     10774     10773     10772     10775     10774     10772     10775
     10772     10775     10776     10772     10775     10777     10776     10775     10777
     10775     10777     10778     10775     10777     10779     10778     10777     10779
     10777     10779     10780     10777     10779     10781     10777     10779     10782
     10780     10779     10781     10780     10779     10782     10781     10779     10782
     10779     10782     10783     10779     10782     10784     10779     10782     10785
     10783     10782     10784     10783     10782     10785     10784     10782     10785
     10782     10785     10786     10782     10785     10787     10782     10785     10788
     10786     10785     10787     10786     10785     10788     10787     10785     10788
     10785     10788     10789     10785     10788     10790     10785     10788     10791
     10789     10788     10790     10789     10788     10791     10790     10788     10791
     10788     10791     10792     10788     10791     10793     10788     10791     10794
     10792     10791     10793     10792     10791     10794     10793     10791     10794
     10791     10794     10795     10791     10794     10796     10791     10794     10797
     10795     10794     10796     10795     10794     10797     10796     10794     10797
     10794     10797     10798     10794     10797     10799     10794     10797     10800
     10798     10797     10799     10798     10797     10800     10799     10797     10800
     10797     10800     10801     10797     10800     10802     10797     10800     10803
     10801     10800     10802     10801     10800     10803     10802     10800     10803
     10754     10804     10805     10754     10804     10806     10754     10804     10807
     10805     10804     10806     10805     10804     10807     10806     10804     10807
     10804     10807     10808     10804     10807     10809     10804     10807     10810
     10808     10807     10809     10808     10807     10810     10809     10807     10810
     10807     10810     10811     10807     10810     10812     10807     10810     10813
     10811     10810     10812     10811     10810     10813     10812     10810     10813
     10810     10813     10814     10810     10813     10815     10810     10813     10816
     10814     10813     10815     10814     10813     10816     10815     10813     10816
     10813     10816     10817     10813     10816     10818     10813     10816     10819
     10817     10816     10818     10817     10816     10819     10818     10816     10819
     10816     10819     10820     10816     10819     10821     10816     10819     10822
     10820     10819     10821     10820     10819     10822     10821     10819     10822
     10819     10822     10823     10819     10822     10824     10819     10822     10825
     10823     10822     10824     10823     10822     10825     10824     10822     10825
     10822     10825     10826     10822     10825     10827     10822     10825     10828
     10826     10825     10827     10826     10825     10828     10827     10825     10828
     10825     10828     10829     10825     10828     10830     10825     10828     10831
     10829     10828     10830     10829     10828     10831     10830     10828     10831
     10828     10831     10832     10828     10831     10833     10828     10831     10834
     10832     10831     10833     10832     10831     10834     10833     10831     10834
     10831     10834     10835     10831     10834     10836     10831     10834     10837
     10835     10834     10836     10835     10834     10837     10836     10834     10837
     10834     10837     10838     10834     10837     10839     10834     10837     10840
     10838     10837     10839     10838     10837     10840     10839     10837     10840
     10837     10840     10841     10837     10840     10842     10837     10840     10843
     10841     10840     10842     10841     10840     10843     10842     10840     10843
     10840     10843     10844     10840     10843     10845     10840     10843     10846
     10844     10843     10845     10844     10843     10846     10845     10843     10846
     10848     10847     10851     10848     10847     10855     10848     10847     10859
     10851     10847     10855     10851     10847     10859     10855     10847     10859
     10847     10848     10849     10847     10848     10850     10847     10848     10863
     10849     10848     10850     10849     10848     10863     10850     10848     10863
     10847     10851     10852     10847     10851     10853     10847     10851     10854
     10852     10851     10853     10852     10851     10854     10853     10851     10854
     10847     10855     10856     10847     10855     10857     10847     10855     10858
     10856     10855     10857     10856     10855     10858     10857     10855     10858
     10847     10859     10860     10847     10859     10861     10847     10859     10862
     10860     10859     10861     10860     10859     10862     10861     10859     10862
     10848     10863     10864     10848     10863     10865     10848     10863     10869
     10864     10863     10865     10864     10863     10869     10865     10863     10869
     10867     10866     10868     10867     10866     10869     10867     10866     10870
     10868     10866     10869     10868     10866     10870     10869     10866     10870
     10863     10869     10866     10866     10870     10871     10870     10871     10872
     10870     10871     10873     10870     10871     10874     10872     10871     10873
     10872     10871     10874     10873     10871     10874     10871     10874     10875
     10871     10874     10876     10871     10874     10882     10875     10874     10876
     10875     10874     10882     10876     10874     10882     10874     10876     10877
     10876     10877     10878     10876     10877     10879     10878     10877     10879
     10877     10879     10880     10877     10879     10881     10877     10879     10891
     10880     10879     10881     10880     10879     10891     10881     10879     10891
     10874     10882     10883     10874     10882     10884     10874     10882     10885
     10883     10882     10884     10883     10882     10885     10884     10882     10885
     10882     10885     10886     10885     10886     10887     10885     10886     10888
     10887     10886     10888     10886     10888     10889     10886     10888     10890
     10886     10888     10938     10889     10888     10890     10889     10888     10938
     10890     10888     10938     10879     10891     10892     10879     10891     10893
     10879     10891     10894     10892     10891     10893     10892     10891     10894
     10893     10891     10894     10891     10894     10895     10891     10894     10896
     10891     10894     10897     10895     10894     10896     10895     10894     10897
     10896     10894     10897     10894     10897     10898     10894     10897     10899
     10894     10897     10900     10898     10897     10899     10898     10897     10900
     10899     10897     10900     10897     10900     10901     10897     10900     10902
     10897     10900     10903     10901     10900     10902     10901     10900     10903
     10902     10900     10903     10900     10903     10904     10900     10903     10905
     10900     10903     10906     10904     10903     10905     10904     10903     10906
     10905     10903     10906     10903     10906     10907     10903     10906     10908
     10903     10906     10909     10907     10906     10908     10907     10906     10909
     10908     10906     10909     10906     10909     10910     10906     10909     10911
     10910     10909     10911     10909     10911     10912     10909     10911     10913
     10912     10911     10913     10911     10913     10914     10911     10913     10915
     10911     10913     10916     10914     10913     10915     10914     10913     10916
     10915     10913     10916     10913     10916     10917     10913     10916     10918
     10913     10916     10919     10917     10916     10918     10917     10916     10919
     10918     10916     10919     10916     10919     10920     10916     10919     10921
     10916     10919     10922     10920     10919     10921     10920     10919     10922
     10921     10919     10922     10919     10922     10923     10919     10922     10924
     10919     10922     10925     10923     10922     10924     10923     10922     10925
     10924     10922     10925     10922     10925     10926     10922     10925     10927
     10922     10925     10928     10926     10925     10927     10926     10925     10928
     10927     10925     10928     10925     10928     10929     10925     10928     10930
     10925     10928     10931     10929     10928     10930     10929     10928     10931
     10930     10928     10931     10928     10931     10932     10928     10931     10933
     10928     10931     10934     10932     10931     10933     10932     10931     10934
     10933     10931     10934     10931     10934     10935     10931     10934     10936
     10931     10934     10937     10935     10934     10936     10935     10934     10937
     10936     10934     10937     10888     10938     10939     10888     10938     10940
     10888     10938     10941     10939     10938     10940     10939     10938     10941
     10940     10938     10941     10938     10941     10942     10938     10941     10943
     10938     10941     10944     10942     10941     10943     10942     10941     10944
     10943     10941     10944     10941     10944     10945     10941     10944     10946
     10941     10944     10947     10945     10944     10946     10945     10944     10947
     10946     10944     10947     10944     10947     10948     10944     10947     10949
     10944     10947     10950     10948     10947     10949     10948     10947     10950
     10949     10947     10950     10947     10950     10951     10947     10950     10952
     10947     10950     10953     10951     10950     10952     10951     10950     10953
     10952     10950     10953     10950     10953     10954     10950     10953     10955
     10950     10953     10956     10954     10953     10955     10954     10953     10956
     10955     10953     10956     10953     10956     10957     10953     10956     10958
     10953     10956     10959     10957     10956     10958     10957     10956     10959
     10958     10956     10959     10956     10959     10960     10956     10959     10961
     10956     10959     10962     10960     10959     10961     10960     10959     10962
     10961     10959     10962     10959     10962     10963     10959     10962     10964
     10959     10962     10965     10963     10962     10964     10963     10962     10965
     10964     10962     10965     10962     10965     10966     10962     10965     10967
     10962     10965     10968     10966     10965     10967     10966     10965     10968
     10967     10965     10968     10965     10968     10969     10965     10968     10970
     10965     10968     10971     10969     10968     10970     10969     10968     10971
     10970     10968     10971     10968     10971     10972     10968     10971     10973
     10968     10971     10974     10972     10971     10973     10972     10971     10974
     10973     10971     10974     10971     10974     10975     10971     10974     10976
     10971     10974     10977     10975     10974     10976     10975     10974     10977
     10976     10974     10977     10974     10977     10978     10974     10977     10979
     10974     10977     10980     10978     10977     10979     10978     10977     10980
     10979     10977     10980     10982     10981     10985     10982     10981     10989
     10982     10981     10993     10985     10981     10989     10985     10981     10993
     10989     10981     10993     10981     10982     10983     10981     10982     10984
     10981     10982     10997     10983     10982     10984     10983     10982     10997
     10984     10982     10997     10981     10985     10986     10981     10985     10987
     10981     10985     10988     10986     10985     10987     10986     10985     10988
     10987     10985     10988     10981     10989     10990     10981     10989     10991
     10981     10989     10992     10990     10989     10991     10990     10989     10992
     10991     10989     10992     10981     10993     10994     10981     10993     10995
     10981     10993     10996     10994     10993     10995     10994     10993     10996
     10995     10993     10996     10982     10997     10998     10982     10997     10999
     10982     10997     11003     10998     10997     10999     10998     10997     11003
     10999     10997     11003     11001     11000     11002     11001     11000     11003
     11001     11000     11004     11002     11000     11003     11002     11000     11004
     11003     11000     11004     10997     11003     11000     11000     11004     11005
     11004     11005     11006     11004     11005     11007     11004     11005     11008
     11006     11005     11007     11006     11005     11008     11007     11005     11008
     11005     11008     11009     11005     11008     11010     11005     11008     11016
     11009     11008     11010     11009     11008     11016     11010     11008     11016
     11008     11010     11011     11010     11011     11012     11010     11011     11013
     11012     11011     11013     11011     11013     11014     11011     11013     11015
     11011     11013     11025     11014     11013     11015     11014     11013     11025
     11015     11013     11025     11008     11016     11017     11008     11016     11018
     11008     11016     11019     11017     11016     11018     11017     11016     11019
     11018     11016     11019     11016     11019     11020     11019     11020     11021
     11019     11020     11022     11021     11020     11022     11020     11022     11023
     11020     11022     11024     11020     11022     11072     11023     11022     11024
     11023     11022     11072     11024     11022     11072     11013     11025     11026
     11013     11025     11027     11013     11025     11028     11026     11025     11027
     11026     11025     11028     11027     11025     11028     11025     11028     11029
     11025     11028     11030     11025     11028     11031     11029     11028     11030
     11029     11028     11031     11030     11028     11031     11028     11031     11032
     11028     11031     11033     11028     11031     11034     11032     11031     11033
     11032     11031     11034     11033     11031     11034     11031     11034     11035
     11031     11034     11036     11031     11034     11037     11035     11034     11036
     11035     11034     11037     11036     11034     11037     11034     11037     11038
     11034     11037     11039     11034     11037     11040     11038     11037     11039
     11038     11037     11040     11039     11037     11040     11037     11040     11041
     11037     11040     11042     11037     11040     11043     11041     11040     11042
     11041     11040     11043     11042     11040     11043     11040     11043     11044
     11040     11043     11045     11044     11043     11045     11043     11045     11046
     11043     11045     11047     11046     11045     11047     11045     11047     11048
     11045     11047     11049     11045     11047     11050     11048     11047     11049
     11048     11047     11050     11049     11047     11050     11047     11050     11051
     11047     11050     11052     11047     11050     11053     11051     11050     11052
     11051     11050     11053     11052     11050     11053     11050     11053     11054
     11050     11053     11055     11050     11053     11056     11054     11053     11055
     11054     11053     11056     11055     11053     11056     11053     11056     11057
     11053     11056     11058     11053     11056     11059     11057     11056     11058
     11057     11056     11059     11058     11056     11059     11056     11059     11060
     11056     11059     11061     11056     11059     11062     11060     11059     11061
     11060     11059     11062     11061     11059     11062     11059     11062     11063
     11059     11062     11064     11059     11062     11065     11063     11062     11064
     11063     11062     11065     11064     11062     11065     11062     11065     11066
     11062     11065     11067     11062     11065     11068     11066     11065     11067
     11066     11065     11068     11067     11065     11068     11065     11068     11069
     11065     11068     11070     11065     11068     11071     11069     11068     11070
     11069     11068     11071     11070     11068     11071     11022     11072     11073
     11022     11072     11074     11022     11072     11075     11073     11072     11074
     11073     11072     11075     11074     11072     11075     11072     11075     11076
     11072     11075     11077     11072     11075     11078     11076     11075     11077
     11076     11075     11078     11077     11075     11078     11075     11078     11079
     11075     11078     11080     11075     11078     11081     11079     11078     11080
     11079     11078     11081     11080     11078     11081     11078     11081     11082
     11078     11081     11083     11078     11081     11084     11082     11081     11083
     11082     11081     11084     11083     11081     11084     11081     11084     11085
     11081     11084     11086     11081     11084     11087     11085     11084     11086
     11085     11084     11087     11086     11084     11087     11084     11087     11088
     11084     11087     11089     11084     11087     11090     11088     11087     11089
     11088     11087     11090     11089     11087     11090     11087     11090     11091
     11087     11090     11092     11087     11090     11093     11091     11090     11092
     11091     11090     11093     11092     11090     11093     11090     11093     11094
     11090     11093     11095     11090     11093     11096     11094     11093     11095
     11094     11093     11096     11095     11093     11096     11093     11096     11097
     11093     11096     11098     11093     11096     11099     11097     11096     11098
     11097     11096     11099     11098     11096     11099     11096     11099     11100
     11096     11099     11101     11096     11099     11102     11100     11099     11101
     11100     11099     11102     11101     11099     11102     11099     11102     11103
     11099     11102     11104     11099     11102     11105     11103     11102     11104
     11103     11102     11105     11104     11102     11105     11102     11105     11106
     11102     11105     11107     11102     11105     11108     11106     11105     11107
     11106     11105     11108     11107     11105     11108     11105     11108     11109
     11105     11108     11110     11105     11108     11111     11109     11108     11110
     11109     11108     11111     11110     11108     11111     11108     11111     11112
     11108     11111     11113     11108     11111     11114     11112     11111     11113
     11112     11111     11114     11113     11111     11114     11116     11115     11119
     11116     11115     11123     11116     11115     11127     11119     11115     11123
     11119     11115     11127     11123     11115     11127     11115     11116     11117
     11115     11116     11118     11115     11116     11131     11117     11116     11118
     11117     11116     11131     11118     11116     11131     11115     11119     11120
     11115     11119     11121     11115     11119     11122     11120     11119     11121
     11120     11119     11122     11121     11119     11122     11115     11123     11124
     11115     11123     11125     11115     11123     11126     11124     11123     11125
     11124     11123     11126     11125     11123     11126     11115     11127     11128
     11115     11127     11129     11115     11127     11130     11128     11127     11129
     11128     11127     11130     11129     11127     11130     11116     11131     11132
     11116     11131     11133     11116     11131     11137     11132     11131     11133
     11132     11131     11137     11133     11131     11137     11135     11134     11136
     11135     11134     11137     11135     11134     11138     11136     11134     11137
     11136     11134     11138     11137     11134     11138     11131     11137     11134
     11134     11138     11139     11138     11139     11140     11138     11139     11141
     11138     11139     11142     11140     11139     11141     11140     11139     11142
     11141     11139     11142     11139     11142     11143     11139     11142     11144
     11139     11142     11150     11143     11142     11144     11143     11142     11150
     11144     11142     11150     11142     11144     11145     11144     11145     11146
     11144     11145     11147     11146     11145     11147     11145     11147     11148
     11145     11147     11149     11145     11147     11159     11148     11147     11149
     11148     11147     11159     11149     11147     11159     11142     11150     11151
     11142     11150     11152     11142     11150     11153     11151     11150     11152
     11151     11150     11153     11152     11150     11153     11150     11153     11154
     11153     11154     11155     11153     11154     11156     11155     11154     11156
     11154     11156     11157     11154     11156     11158     11154     11156     11206
     11157     11156     11158     11157     11156     11206     11158     11156     11206
     11147     11159     11160     11147     11159     11161     11147     11159     11162
     11160     11159     11161     11160     11159     11162     11161     11159     11162
     11159     11162     11163     11159     11162     11164     11159     11162     11165
     11163     11162     11164     11163     11162     11165     11164     11162     11165
     11162     11165     11166     11162     11165     11167     11162     11165     11168
     11166     11165     11167     11166     11165     11168     11167     11165     11168
     11165     11168     11169     11165     11168     11170     11165     11168     11171
     11169     11168     11170     11169     11168     11171     11170     11168     11171
     11168     11171     11172     11168     11171     11173     11168     11171     11174
     11172     11171     11173     11172     11171     11174     11173     11171     11174
     11171     11174     11175     11171     11174     11176     11171     11174     11177
     11175     11174     11176     11175     11174     11177     11176     11174     11177
     11174     11177     11178     11174     11177     11179     11178     11177     11179
     11177     11179     11180     11177     11179     11181     11180     11179     11181
     11179     11181     11182     11179     11181     11183     11179     11181     11184
     11182     11181     11183     11182     11181     11184     11183     11181     11184
     11181     11184     11185     11181     11184     11186     11181     11184     11187
     11185     11184     11186     11185     11184     11187     11186     11184     11187
     11184     11187     11188     11184     11187     11189     11184     11187     11190
     11188     11187     11189     11188     11187     11190     11189     11187     11190
     11187     11190     11191     11187     11190     11192     11187     11190     11193
     11191     11190     11192     11191     11190     11193     11192     11190     11193
     11190     11193     11194     11190     11193     11195     11190     11193     11196
     11194     11193     11195     11194     11193     11196     11195     11193     11196
     11193     11196     11197     11193     11196     11198     11193     11196     11199
     11197     11196     11198     11197     11196     11199     11198     11196     11199
     11196     11199     11200     11196     11199     11201     11196     11199     11202
     11200     11199     11201     11200     11199     11202     11201     11199     11202
     11199     11202     11203     11199     11202     11204     11199     11202     11205
     11203     11202     11204     11203     11202     11205     11204     11202     11205
     11156     11206     11207     11156     11206     11208     11156     11206     11209
     11207     11206     11208     11207     11206     11209     11208     11206     11209
     11206     11209     11210     11206     11209     11211     11206     11209     11212
     11210     11209     11211     11210     11209     11212     11211     11209     11212
     11209     11212     11213     11209     11212     11214     11209     11212     11215
     11213     11212     11214     11213     11212     11215     11214     11212     11215
     11212     11215     11216     11212     11215     11217     11212     11215     11218
     11216     11215     11217     11216     11215     11218     11217     11215     11218
     11215     11218     11219     11215     11218     11220     11215     11218     11221
     11219     11218     11220     11219     11218     11221     11220     11218     11221
     11218     11221     11222     11218     11221     11223     11218     11221     11224
     11222     11221     11223     11222     11221     11224     11223     11221     11224
     11221     11224     11225     11221     11224     11226     11221     11224     11227
     11225     11224     11226     11225     11224     11227     11226     11224     11227
     11224     11227     11228     11224     11227     11229     11224     11227     11230
     11228     11227     11229     11228     11227     11230     11229     11227     11230
     11227     11230     11231     11227     11230     11232     11227     11230     11233
     11231     11230     11232     11231     11230     11233     11232     11230     11233
     11230     11233     11234     11230     11233     11235     11230     11233     11236
     11234     11233     11235     11234     11233     11236     11235     11233     11236
     11233     11236     11237     11233     11236     11238     11233     11236     11239
     11237     11236     11238     11237     11236     11239     11238     11236     11239
     11236     11239     11240     11236     11239     11241     11236     11239     11242
     11240     11239     11241     11240     11239     11242     11241     11239     11242
     11239     11242     11243     11239     11242     11244     11239     11242     11245
     11243     11242     11244     11243     11242     11245     11244     11242     11245
     11242     11245     11246     11242     11245     11247     11242     11245     11248
     11246     11245     11247     11246     11245     11248     11247     11245     11248
     11250     11249     11253     11250     11249     11257     11250     11249     11261
     11253     11249     11257     11253     11249     11261     11257     11249     11261
     11249     11250     11251     11249     11250     11252     11249     11250     11265
     11251     11250     11252     11251     11250     11265     11252     11250     11265
     11249     11253     11254     11249     11253     11255     11249     11253     11256
     11254     11253     11255     11254     11253     11256     11255     11253     11256
     11249     11257     11258     11249     11257     11259     11249     11257     11260
     11258     11257     11259     11258     11257     11260     11259     11257     11260
     11249     11261     11262     11249     11261     11263     11249     11261     11264
     11262     11261     11263     11262     11261     11264     11263     11261     11264
     11250     11265     11266     11250     11265     11267     11250     11265     11271
     11266     11265     11267     11266     11265     11271     11267     11265     11271
     11269     11268     11270     11269     11268     11271     11269     11268     11272
     11270     11268     11271     11270     11268     11272     11271     11268     11272
     11265     11271     11268     11268     11272     11273     11272     11273     11274
     11272     11273     11275     11272     11273     11276     11274     11273     11275
     11274     11273     11276     11275     11273     11276     11273     11276     11277
     11273     11276     11278     11273     11276     11284     11277     11276     11278
     11277     11276     11284     11278     11276     11284     11276     11278     11279
     11278     11279     11280     11278     11279     11281     11280     11279     11281
     11279     11281     11282     11279     11281     11283     11279     11281     11293
     11282     11281     11283     11282     11281     11293     11283     11281     11293
     11276     11284     11285     11276     11284     11286     11276     11284     11287
     11285     11284     11286     11285     11284     11287     11286     11284     11287
     11284     11287     11288     11287     11288     11289     11287     11288     11290
     11289     11288     11290     11288     11290     11291     11288     11290     11292
     11288     11290     11340     11291     11290     11292     11291     11290     11340
     11292     11290     11340     11281     11293     11294     11281     11293     11295
     11281     11293     11296     11294     11293     11295     11294     11293     11296
     11295     11293     11296     11293     11296     11297     11293     11296     11298
     11293     11296     11299     11297     11296     11298     11297     11296     11299
     11298     11296     11299     11296     11299     11300     11296     11299     11301
     11296     11299     11302     11300     11299     11301     11300     11299     11302
     11301     11299     11302     11299     11302     11303     11299     11302     11304
     11299     11302     11305     11303     11302     11304     11303     11302     11305
     11304     11302     11305     11302     11305     11306     11302     11305     11307
     11302     11305     11308     11306     11305     11307     11306     11305     11308
     11307     11305     11308     11305     11308     11309     11305     11308     11310
     11305     11308     11311     11309     11308     11310     11309     11308     11311
     11310     11308     11311     11308     11311     11312     11308     11311     11313
     11312     11311     11313     11311     11313     11314     11311     11313     11315
     11314     11313     11315     11313     11315     11316     11313     11315     11317
     11313     11315     11318     11316     11315     11317     11316     11315     11318
     11317     11315     11318     11315     11318     11319     11315     11318     11320
     11315     11318     11321     11319     11318     11320     11319     11318     11321
     11320     11318     11321     11318     11321     11322     11318     11321     11323
     11318     11321     11324     11322     11321     11323     11322     11321     11324
     11323     11321     11324     11321     11324     11325     11321     11324     11326
     11321     11324     11327     11325     11324     11326     11325     11324     11327
     11326     11324     11327     11324     11327     11328     11324     11327     11329
     11324     11327     11330     11328     11327     11329     11328     11327     11330
     11329     11327     11330     11327     11330     11331     11327     11330     11332
     11327     11330     11333     11331     11330     11332     11331     11330     11333
     11332     11330     11333     11330     11333     11334     11330     11333     11335
     11330     11333     11336     11334     11333     11335     11334     11333     11336
     11335     11333     11336     11333     11336     11337     11333     11336     11338
     11333     11336     11339     11337     11336     11338     11337     11336     11339
     11338     11336     11339     11290     11340     11341     11290     11340     11342
     11290     11340     11343     11341     11340     11342     11341     11340     11343
     11342     11340     11343     11340     11343     11344     11340     11343     11345
     11340     11343     11346     11344     11343     11345     11344     11343     11346
     11345     11343     11346     11343     11346     11347     11343     11346     11348
     11343     11346     11349     11347     11346     11348     11347     11346     11349
     11348     11346     11349     11346     11349     11350     11346     11349     11351
     11346     11349     11352     11350     11349     11351     11350     11349     11352
     11351     11349     11352     11349     11352     11353     11349     11352     11354
     11349     11352     11355     11353     11352     11354     11353     11352     11355
     11354     11352     11355     11352     11355     11356     11352     11355     11357
     11352     11355     11358     11356     11355     11357     11356     11355     11358
     11357     11355     11358     11355     11358     11359     11355     11358     11360
     11355     11358     11361     11359     11358     11360     11359     11358     11361
     11360     11358     11361     11358     11361     11362     11358     11361     11363
     11358     11361     11364     11362     11361     11363     11362     11361     11364
     11363     11361     11364     11361     11364     11365     11361     11364     11366
     11361     11364     11367     11365     11364     11366     11365     11364     11367
     11366     11364     11367     11364     11367     11368     11364     11367     11369
     11364     11367     11370     11368     11367     11369     11368     11367     11370
     11369     11367     11370     11367     11370     11371     11367     11370     11372
     11367     11370     11373     11371     11370     11372     11371     11370     11373
     11372     11370     11373     11370     11373     11374     11370     11373     11375
     11370     11373     11376     11374     11373     11375     11374     11373     11376
     11375     11373     11376     11373     11376     11377     11373     11376     11378
     11373     11376     11379     11377     11376     11378     11377     11376     11379
     11378     11376     11379     11376     11379     11380     11376     11379     11381
     11376     11379     11382     11380     11379     11381     11380     11379     11382
     11381     11379     11382     11384     11383     11387     11384     11383     11391
     11384     11383     11395     11387     11383     11391     11387     11383     11395
     11391     11383     11395     11383     11384     11385     11383     11384     11386
     11383     11384     11399     11385     11384     11386     11385     11384     11399
     11386     11384     11399     11383     11387     11388     11383     11387     11389
     11383     11387     11390     11388     11387     11389     11388     11387     11390
     11389     11387     11390     11383     11391     11392     11383     11391     11393
     11383     11391     11394     11392     11391     11393     11392     11391     11394
     11393     11391     11394     11383     11395     11396     11383     11395     11397
     11383     11395     11398     11396     11395     11397     11396     11395     11398
     11397     11395     11398     11384     11399     11400     11384     11399     11401
     11384     11399     11405     11400     11399     11401     11400     11399     11405
     11401     11399     11405     11403     11402     11404     11403     11402     11405
     11403     11402     11406     11404     11402     11405     11404     11402     11406
     11405     11402     11406     11399     11405     11402     11402     11406     11407
     11406     11407     11408     11406     11407     11409     11406     11407     11410
     11408     11407     11409     11408     11407     11410     11409     11407     11410
     11407     11410     11411     11407     11410     11412     11407     11410     11418
     11411     11410     11412     11411     11410     11418     11412     11410     11418
     11410     11412     11413     11412     11413     11414     11412     11413     11415
     11414     11413     11415     11413     11415     11416     11413     11415     11417
     11413     11415     11427     11416     11415     11417     11416     11415     11427
     11417     11415     11427     11410     11418     11419     11410     11418     11420
     11410     11418     11421     11419     11418     11420     11419     11418     11421
     11420     11418     11421     11418     11421     11422     11421     11422     11423
     11421     11422     11424     11423     11422     11424     11422     11424     11425
     11422     11424     11426     11422     11424     11474     11425     11424     11426
     11425     11424     11474     11426     11424     11474     11415     11427     11428
     11415     11427     11429     11415     11427     11430     11428     11427     11429
     11428     11427     11430     11429     11427     11430     11427     11430     11431
     11427     11430     11432     11427     11430     11433     11431     11430     11432
     11431     11430     11433     11432     11430     11433     11430     11433     11434
     11430     11433     11435     11430     11433     11436     11434     11433     11435
     11434     11433     11436     11435     11433     11436     11433     11436     11437
     11433     11436     11438     11433     11436     11439     11437     11436     11438
     11437     11436     11439     11438     11436     11439     11436     11439     11440
     11436     11439     11441     11436     11439     11442     11440     11439     11441
     11440     11439     11442     11441     11439     11442     11439     11442     11443
     11439     11442     11444     11439     11442     11445     11443     11442     11444
     11443     11442     11445     11444     11442     11445     11442     11445     11446
     11442     11445     11447     11446     11445     11447     11445     11447     11448
     11445     11447     11449     11448     11447     11449     11447     11449     11450
     11447     11449     11451     11447     11449     11452     11450     11449     11451
     11450     11449     11452     11451     11449     11452     11449     11452     11453
     11449     11452     11454     11449     11452     11455     11453     11452     11454
     11453     11452     11455     11454     11452     11455     11452     11455     11456
     11452     11455     11457     11452     11455     11458     11456     11455     11457
     11456     11455     11458     11457     11455     11458     11455     11458     11459
     11455     11458     11460     11455     11458     11461     11459     11458     11460
     11459     11458     11461     11460     11458     11461     11458     11461     11462
     11458     11461     11463     11458     11461     11464     11462     11461     11463
     11462     11461     11464     11463     11461     11464     11461     11464     11465
     11461     11464     11466     11461     11464     11467     11465     11464     11466
     11465     11464     11467     11466     11464     11467     11464     11467     11468
     11464     11467     11469     11464     11467     11470     11468     11467     11469
     11468     11467     11470     11469     11467     11470     11467     11470     11471
     11467     11470     11472     11467     11470     11473     11471     11470     11472
     11471     11470     11473     11472     11470     11473     11424     11474     11475
     11424     11474     11476     11424     11474     11477     11475     11474     11476
     11475     11474     11477     11476     11474     11477     11474     11477     11478
     11474     11477     11479     11474     11477     11480     11478     11477     11479
     11478     11477     11480     11479     11477     11480     11477     11480     11481
     11477     11480     11482     11477     11480     11483     11481     11480     11482
     11481     11480     11483     11482     11480     11483     11480     11483     11484
     11480     11483     11485     11480     11483     11486     11484     11483     11485
     11484     11483     11486     11485     11483     11486     11483     11486     11487
     11483     11486     11488     11483     11486     11489     11487     11486     11488
     11487     11486     11489     11488     11486     11489     11486     11489     11490
     11486     11489     11491     11486     11489     11492     11490     11489     11491
     11490     11489     11492     11491     11489     11492     11489     11492     11493
     11489     11492     11494     11489     11492     11495     11493     11492     11494
     11493     11492     11495     11494     11492     11495     11492     11495     11496
     11492     11495     11497     11492     11495     11498     11496     11495     11497
     11496     11495     11498     11497     11495     11498     11495     11498     11499
     11495     11498     11500     11495     11498     11501     11499     11498     11500
     11499     11498     11501     11500     11498     11501     11498     11501     11502
     11498     11501     11503     11498     11501     11504     11502     11501     11503
     11502     11501     11504     11503     11501     11504     11501     11504     11505
     11501     11504     11506     11501     11504     11507     11505     11504     11506
     11505     11504     11507     11506     11504     11507     11504     11507     11508
     11504     11507     11509     11504     11507     11510     11508     11507     11509
     11508     11507     11510     11509     11507     11510     11507     11510     11511
     11507     11510     11512     11507     11510     11513     11511     11510     11512
     11511     11510     11513     11512     11510     11513     11510     11513     11514
     11510     11513     11515     11510     11513     11516     11514     11513     11515
     11514     11513     11516     11515     11513     11516     11518     11517     11521
     11518     11517     11525     11518     11517     11529     11521     11517     11525
     11521     11517     11529     11525     11517     11529     11517     11518     11519
     11517     11518     11520     11517     11518     11533     11519     11518     11520
     11519     11518     11533     11520     11518     11533     11517     11521     11522
     11517     11521     11523     11517     11521     11524     11522     11521     11523
     11522     11521     11524     11523     11521     11524     11517     11525     11526
     11517     11525     11527     11517     11525     11528     11526     11525     11527
     11526     11525     11528     11527     11525     11528     11517     11529     11530
     11517     11529     11531     11517     11529     11532     11530     11529     11531
     11530     11529     11532     11531     11529     11532     11518     11533     11534
     11518     11533     11535     11518     11533     11539     11534     11533     11535
     11534     11533     11539     11535     11533     11539     11537     11536     11538
     11537     11536     11539     11537     11536     11540     11538     11536     11539
     11538     11536     11540     11539     11536     11540     11533     11539     11536
     11536     11540     11541     11540     11541     11542     11540     11541     11543
     11540     11541     11544     11542     11541     11543     11542     11541     11544
     11543     11541     11544     11541     11544     11545     11541     11544     11546
     11541     11544     11552     11545     11544     11546     11545     11544     11552
     11546     11544     11552     11544     11546     11547     11546     11547     11548
     11546     11547     11549     11548     11547     11549     11547     11549     11550
     11547     11549     11551     11547     11549     11561     11550     11549     11551
     11550     11549     11561     11551     11549     11561     11544     11552     11553
     11544     11552     11554     11544     11552     11555     11553     11552     11554
     11553     11552     11555     11554     11552     11555     11552     11555     11556
     11555     11556     11557     11555     11556     11558     11557     11556     11558
     11556     11558     11559     11556     11558     11560     11556     11558     11608
     11559     11558     11560     11559     11558     11608     11560     11558     11608
     11549     11561     11562     11549     11561     11563     11549     11561     11564
     11562     11561     11563     11562     11561     11564     11563     11561     11564
     11561     11564     11565     11561     11564     11566     11561     11564     11567
     11565     11564     11566     11565     11564     11567     11566     11564     11567
     11564     11567     11568     11564     11567     11569     11564     11567     11570
     11568     11567     11569     11568     11567     11570     11569     11567     11570
     11567     11570     11571     11567     11570     11572     11567     11570     11573
     11571     11570     11572     11571     11570     11573     11572     11570     11573
     11570     11573     11574     11570     11573     11575     11570     11573     11576
     11574     11573     11575     11574     11573     11576     11575     11573     11576
     11573     11576     11577     11573     11576     11578     11573     11576     11579
     11577     11576     11578     11577     11576     11579     11578     11576     11579
     11576     11579     11580     11576     11579     11581     11580     11579     11581
     11579     11581     11582     11579     11581     11583     11582     11581     11583
     11581     11583     11584     11581     11583     11585     11581     11583     11586
     11584     11583     11585     11584     11583     11586     11585     11583     11586
     11583     11586     11587     11583     11586     11588     11583     11586     11589
     11587     11586     11588     11587     11586     11589     11588     11586     11589
     11586     11589     11590     11586     11589     11591     11586     11589     11592
     11590     11589     11591     11590     11589     11592     11591     11589     11592
     11589     11592     11593     11589     11592     11594     11589     11592     11595
     11593     11592     11594     11593     11592     11595     11594     11592     11595
     11592     11595     11596     11592     11595     11597     11592     11595     11598
     11596     11595     11597     11596     11595     11598     11597     11595     11598
     11595     11598     11599     11595     11598     11600     11595     11598     11601
     11599     11598     11600     11599     11598     11601     11600     11598     11601
     11598     11601     11602     11598     11601     11603     11598     11601     11604
     11602     11601     11603     11602     11601     11604     11603     11601     11604
     11601     11604     11605     11601     11604     11606     11601     11604     11607
     11605     11604     11606     11605     11604     11607     11606     11604     11607
     11558     11608     11609     11558     11608     11610     11558     11608     11611
     11609     11608     11610     11609     11608     11611     11610     11608     11611
     11608     11611     11612     11608     11611     11613     11608     11611     11614
     11612     11611     11613     11612     11611     11614     11613     11611     11614
     11611     11614     11615     11611     11614     11616     11611     11614     11617
     11615     11614     11616     11615     11614     11617     11616     11614     11617
     11614     11617     11618     11614     11617     11619     11614     11617     11620
     11618     11617     11619     11618     11617     11620     11619     11617     11620
     11617     11620     11621     11617     11620     11622     11617     11620     11623
     11621     11620     11622     11621     11620     11623     11622     11620     11623
     11620     11623     11624     11620     11623     11625     11620     11623     11626
     11624     11623     11625     11624     11623     11626     11625     11623     11626
     11623     11626     11627     11623     11626     11628     11623     11626     11629
     11627     11626     11628     11627     11626     11629     11628     11626     11629
     11626     11629     11630     11626     11629     11631     11626     11629     11632
     11630     11629     11631     11630     11629     11632     11631     11629     11632
     11629     11632     11633     11629     11632     11634     11629     11632     11635
     11633     11632     11634     11633     11632     11635     11634     11632     11635
     11632     11635     11636     11632     11635     11637     11632     11635     11638
     11636     11635     11637     11636     11635     11638     11637     11635     11638
     11635     11638     11639     11635     11638     11640     11635     11638     11641
     11639     11638     11640     11639     11638     11641     11640     11638     11641
     11638     11641     11642     11638     11641     11643     11638     11641     11644
     11642     11641     11643     11642     11641     11644     11643     11641     11644
     11641     11644     11645     11641     11644     11646     11641     11644     11647
     11645     11644     11646     11645     11644     11647     11646     11644     11647
     11644     11647     11648     11644     11647     11649     11644     11647     11650
     11648     11647     11649     11648     11647     11650     11649     11647     11650
     11652     11651     11655     11652     11651     11659     11652     11651     11663
     11655     11651     11659     11655     11651     11663     11659     11651     11663
     11651     11652     11653     11651     11652     11654     11651     11652     11667
     11653     11652     11654     11653     11652     11667     11654     11652     11667
     11651     11655     11656     11651     11655     11657     11651     11655     11658
     11656     11655     11657     11656     11655     11658     11657     11655     11658
     11651     11659     11660     11651     11659     11661     11651     11659     11662
     11660     11659     11661     11660     11659     11662     11661     11659     11662
     11651     11663     11664     11651     11663     11665     11651     11663     11666
     11664     11663     11665     11664     11663     11666     11665     11663     11666
     11652     11667     11668     11652     11667     11669     11652     11667     11673
     11668     11667     11669     11668     11667     11673     11669     11667     11673
     11671     11670     11672     11671     11670     11673     11671     11670     11674
     11672     11670     11673     11672     11670     11674     11673     11670     11674
     11667     11673     11670     11670     11674     11675     11674     11675     11676
     11674     11675     11677     11674     11675     11678     11676     11675     11677
     11676     11675     11678     11677     11675     11678     11675     11678     11679
     11675     11678     11680     11675     11678     11686     11679     11678     11680
     11679     11678     11686     11680     11678     11686     11678     11680     11681
     11680     11681     11682     11680     11681     11683     11682     11681     11683
     11681     11683     11684     11681     11683     11685     11681     11683     11695
     11684     11683     11685     11684     11683     11695     11685     11683     11695
     11678     11686     11687     11678     11686     11688     11678     11686     11689
     11687     11686     11688     11687     11686     11689     11688     11686     11689
     11686     11689     11690     11689     11690     11691     11689     11690     11692
     11691     11690     11692     11690     11692     11693     11690     11692     11694
     11690     11692     11742     11693     11692     11694     11693     11692     11742
     11694     11692     11742     11683     11695     11696     11683     11695     11697
     11683     11695     11698     11696     11695     11697     11696     11695     11698
     11697     11695     11698     11695     11698     11699     11695     11698     11700
     11695     11698     11701     11699     11698     11700     11699     11698     11701
     11700     11698     11701     11698     11701     11702     11698     11701     11703
     11698     11701     11704     11702     11701     11703     11702     11701     11704
     11703     11701     11704     11701     11704     11705     11701     11704     11706
     11701     11704     11707     11705     11704     11706     11705     11704     11707
     11706     11704     11707     11704     11707     11708     11704     11707     11709
     11704     11707     11710     11708     11707     11709     11708     11707     11710
     11709     11707     11710     11707     11710     11711     11707     11710     11712
     11707     11710     11713     11711     11710     11712     11711     11710     11713
     11712     11710     11713     11710     11713     11714     11710     11713     11715
     11714     11713     11715     11713     11715     11716     11713     11715     11717
     11716     11715     11717     11715     11717     11718     11715     11717     11719
     11715     11717     11720     11718     11717     11719     11718     11717     11720
     11719     11717     11720     11717     11720     11721     11717     11720     11722
     11717     11720     11723     11721     11720     11722     11721     11720     11723
     11722     11720     11723     11720     11723     11724     11720     11723     11725
     11720     11723     11726     11724     11723     11725     11724     11723     11726
     11725     11723     11726     11723     11726     11727     11723     11726     11728
     11723     11726     11729     11727     11726     11728     11727     11726     11729
     11728     11726     11729     11726     11729     11730     11726     11729     11731
     11726     11729     11732     11730     11729     11731     11730     11729     11732
     11731     11729     11732     11729     11732     11733     11729     11732     11734
     11729     11732     11735     11733     11732     11734     11733     11732     11735
     11734     11732     11735     11732     11735     11736     11732     11735     11737
     11732     11735     11738     11736     11735     11737     11736     11735     11738
     11737     11735     11738     11735     11738     11739     11735     11738     11740
     11735     11738     11741     11739     11738     11740     11739     11738     11741
     11740     11738     11741     11692     11742     11743     11692     11742     11744
     11692     11742     11745     11743     11742     11744     11743     11742     11745
     11744     11742     11745     11742     11745     11746     11742     11745     11747
     11742     11745     11748     11746     11745     11747     11746     11745     11748
     11747     11745     11748     11745     11748     11749     11745     11748     11750
     11745     11748     11751     11749     11748     11750     11749     11748     11751
     11750     11748     11751     11748     11751     11752     11748     11751     11753
     11748     11751     11754     11752     11751     11753     11752     11751     11754
     11753     11751     11754     11751     11754     11755     11751     11754     11756
     11751     11754     11757     11755     11754     11756     11755     11754     11757
     11756     11754     11757     11754     11757     11758     11754     11757     11759
     11754     11757     11760     11758     11757     11759     11758     11757     11760
     11759     11757     11760     11757     11760     11761     11757     11760     11762
     11757     11760     11763     11761     11760     11762     11761     11760     11763
     11762     11760     11763     11760     11763     11764     11760     11763     11765
     11760     11763     11766     11764     11763     11765     11764     11763     11766
     11765     11763     11766     11763     11766     11767     11763     11766     11768
     11763     11766     11769     11767     11766     11768     11767     11766     11769
     11768     11766     11769     11766     11769     11770     11766     11769     11771
     11766     11769     11772     11770     11769     11771     11770     11769     11772
     11771     11769     11772     11769     11772     11773     11769     11772     11774
     11769     11772     11775     11773     11772     11774     11773     11772     11775
     11774     11772     11775     11772     11775     11776     11772     11775     11777
     11772     11775     11778     11776     11775     11777     11776     11775     11778
     11777     11775     11778     11775     11778     11779     11775     11778     11780
     11775     11778     11781     11779     11778     11780     11779     11778     11781
     11780     11778     11781     11778     11781     11782     11778     11781     11783
     11778     11781     11784     11782     11781     11783     11782     11781     11784
     11783     11781     11784     11786     11785     11789     11786     11785     11793
     11786     11785     11797     11789     11785     11793     11789     11785     11797
     11793     11785     11797     11785     11786     11787     11785     11786     11788
     11785     11786     11801     11787     11786     11788     11787     11786     11801
     11788     11786     11801     11785     11789     11790     11785     11789     11791
     11785     11789     11792     11790     11789     11791     11790     11789     11792
     11791     11789     11792     11785     11793     11794     11785     11793     11795
     11785     11793     11796     11794     11793     11795     11794     11793     11796
     11795     11793     11796     11785     11797     11798     11785     11797     11799
     11785     11797     11800     11798     11797     11799     11798     11797     11800
     11799     11797     11800     11786     11801     11802     11786     11801     11803
     11786     11801     11807     11802     11801     11803     11802     11801     11807
     11803     11801     11807     11805     11804     11806     11805     11804     11807
     11805     11804     11808     11806     11804     11807     11806     11804     11808
     11807     11804     11808     11801     11807     11804     11804     11808     11809
     11808     11809     11810     11808     11809     11811     11808     11809     11812
     11810     11809     11811     11810     11809     11812     11811     11809     11812
     11809     11812     11813     11809     11812     11814     11809     11812     11820
     11813     11812     11814     11813     11812     11820     11814     11812     11820
     11812     11814     11815     11814     11815     11816     11814     11815     11817
     11816     11815     11817     11815     11817     11818     11815     11817     11819
     11815     11817     11829     11818     11817     11819     11818     11817     11829
     11819     11817     11829     11812     11820     11821     11812     11820     11822
     11812     11820     11823     11821     11820     11822     11821     11820     11823
     11822     11820     11823     11820     11823     11824     11823     11824     11825
     11823     11824     11826     11825     11824     11826     11824     11826     11827
     11824     11826     11828     11824     11826     11876     11827     11826     11828
     11827     11826     11876     11828     11826     11876     11817     11829     11830
     11817     11829     11831     11817     11829     11832     11830     11829     11831
     11830     11829     11832     11831     11829     11832     11829     11832     11833
     11829     11832     11834     11829     11832     11835     11833     11832     11834
     11833     11832     11835     11834     11832     11835     11832     11835     11836
     11832     11835     11837     11832     11835     11838     11836     11835     11837
     11836     11835     11838     11837     11835     11838     11835     11838     11839
     11835     11838     11840     11835     11838     11841     11839     11838     11840
     11839     11838     11841     11840     11838     11841     11838     11841     11842
     11838     11841     11843     11838     11841     11844     11842     11841     11843
     11842     11841     11844     11843     11841     11844     11841     11844     11845
     11841     11844     11846     11841     11844     11847     11845     11844     11846
     11845     11844     11847     11846     11844     11847     11844     11847     11848
     11844     11847     11849     11848     11847     11849     11847     11849     11850
     11847     11849     11851     11850     11849     11851     11849     11851     11852
     11849     11851     11853     11849     11851     11854     11852     11851     11853
     11852     11851     11854     11853     11851     11854     11851     11854     11855
     11851     11854     11856     11851     11854     11857     11855     11854     11856
     11855     11854     11857     11856     11854     11857     11854     11857     11858
     11854     11857     11859     11854     11857     11860     11858     11857     11859
     11858     11857     11860     11859     11857     11860     11857     11860     11861
     11857     11860     11862     11857     11860     11863     11861     11860     11862
     11861     11860     11863     11862     11860     11863     11860     11863     11864
     11860     11863     11865     11860     11863     11866     11864     11863     11865
     11864     11863     11866     11865     11863     11866     11863     11866     11867
     11863     11866     11868     11863     11866     11869     11867     11866     11868
     11867     11866     11869     11868     11866     11869     11866     11869     11870
     11866     11869     11871     11866     11869     11872     11870     11869     11871
     11870     11869     11872     11871     11869     11872     11869     11872     11873
     11869     11872     11874     11869     11872     11875     11873     11872     11874
     11873     11872     11875     11874     11872     11875     11826     11876     11877
     11826     11876     11878     11826     11876     11879     11877     11876     11878
     11877     11876     11879     11878     11876     11879     11876     11879     11880
     11876     11879     11881     11876     11879     11882     11880     11879     11881
     11880     11879     11882     11881     11879     11882     11879     11882     11883
     11879     11882     11884     11879     11882     11885     11883     11882     11884
     11883     11882     11885     11884     11882     11885     11882     11885     11886
     11882     11885     11887     11882     11885     11888     11886     11885     11887
     11886     11885     11888     11887     11885     11888     11885     11888     11889
     11885     11888     11890     11885     11888     11891     11889     11888     11890
     11889     11888     11891     11890     11888     11891     11888     11891     11892
     11888     11891     11893     11888     11891     11894     11892     11891     11893
     11892     11891     11894     11893     11891     11894     11891     11894     11895
     11891     11894     11896     11891     11894     11897     11895     11894     11896
     11895     11894     11897     11896     11894     11897     11894     11897     11898
     11894     11897     11899     11894     11897     11900     11898     11897     11899
     11898     11897     11900     11899     11897     11900     11897     11900     11901
     11897     11900     11902     11897     11900     11903     11901     11900     11902
     11901     11900     11903     11902     11900     11903     11900     11903     11904
     11900     11903     11905     11900     11903     11906     11904     11903     11905
     11904     11903     11906     11905     11903     11906     11903     11906     11907
     11903     11906     11908     11903     11906     11909     11907     11906     11908
     11907     11906     11909     11908     11906     11909     11906     11909     11910
     11906     11909     11911     11906     11909     11912     11910     11909     11911
     11910     11909     11912     11911     11909     11912     11909     11912     11913
     11909     11912     11914     11909     11912     11915     11913     11912     11914
     11913     11912     11915     11914     11912     11915     11912     11915     11916
     11912     11915     11917     11912     11915     11918     11916     11915     11917
     11916     11915     11918     11917     11915     11918     11920     11919     11923
     11920     11919     11927     11920     11919     11931     11923     11919     11927
     11923     11919     11931     11927     11919     11931     11919     11920     11921
     11919     11920     11922     11919     11920     11935     11921     11920     11922
     11921     11920     11935     11922     11920     11935     11919     11923     11924
     11919     11923     11925     11919     11923     11926     11924     11923     11925
     11924     11923     11926     11925     11923     11926     11919     11927     11928
     11919     11927     11929     11919     11927     11930     11928     11927     11929
     11928     11927     11930     11929     11927     11930     11919     11931     11932
     11919     11931     11933     11919     11931     11934     11932     11931     11933
     11932     11931     11934     11933     11931     11934     11920     11935     11936
     11920     11935     11937     11920     11935     11941     11936     11935     11937
     11936     11935     11941     11937     11935     11941     11939     11938     11940
     11939     11938     11941     11939     11938     11942     11940     11938     11941
     11940     11938     11942     11941     11938     11942     11935     11941     11938
     11938     11942     11943     11942     11943     11944     11942     11943     11945
     11942     11943     11946     11944     11943     11945     11944     11943     11946
     11945     11943     11946     11943     11946     11947     11943     11946     11948
     11943     11946     11954     11947     11946     11948     11947     11946     11954
     11948     11946     11954     11946     11948     11949     11948     11949     11950
     11948     11949     11951     11950     11949     11951     11949     11951     11952
     11949     11951     11953     11949     11951     11963     11952     11951     11953
     11952     11951     11963     11953     11951     11963     11946     11954     11955
     11946     11954     11956     11946     11954     11957     11955     11954     11956
     11955     11954     11957     11956     11954     11957     11954     11957     11958
     11957     11958     11959     11957     11958     11960     11959     11958     11960
     11958     11960     11961     11958     11960     11962     11958     11960     12010
     11961     11960     11962     11961     11960     12010     11962     11960     12010
     11951     11963     11964     11951     11963     11965     11951     11963     11966
     11964     11963     11965     11964     11963     11966     11965     11963     11966
     11963     11966     11967     11963     11966     11968     11963     11966     11969
     11967     11966     11968     11967     11966     11969     11968     11966     11969
     11966     11969     11970     11966     11969     11971     11966     11969     11972
     11970     11969     11971     11970     11969     11972     11971     11969     11972
     11969     11972     11973     11969     11972     11974     11969     11972     11975
     11973     11972     11974     11973     11972     11975     11974     11972     11975
     11972     11975     11976     11972     11975     11977     11972     11975     11978
     11976     11975     11977     11976     11975     11978     11977     11975     11978
     11975     11978     11979     11975     11978     11980     11975     11978     11981
     11979     11978     11980     11979     11978     11981     11980     11978     11981
     11978     11981     11982     11978     11981     11983     11982     11981     11983
     11981     11983     11984     11981     11983     11985     11984     11983     11985
     11983     11985     11986     11983     11985     11987     11983     11985     11988
     11986     11985     11987     11986     11985     11988     11987     11985     11988
     11985     11988     11989     11985     11988     11990     11985     11988     11991
     11989     11988     11990     11989     11988     11991     11990     11988     11991
     11988     11991     11992     11988     11991     11993     11988     11991     11994
     11992     11991     11993     11992     11991     11994     11993     11991     11994
     11991     11994     11995     11991     11994     11996     11991     11994     11997
     11995     11994     11996     11995     11994     11997     11996     11994     11997
     11994     11997     11998     11994     11997     11999     11994     11997     12000
     11998     11997     11999     11998     11997     12000     11999     11997     12000
     11997     12000     12001     11997     12000     12002     11997     12000     12003
     12001     12000     12002     12001     12000     12003     12002     12000     12003
     12000     12003     12004     12000     12003     12005     12000     12003     12006
     12004     12003     12005     12004     12003     12006     12005     12003     12006
     12003     12006     12007     12003     12006     12008     12003     12006     12009
     12007     12006     12008     12007     12006     12009     12008     12006     12009
     11960     12010     12011     11960     12010     12012     11960     12010     12013
     12011     12010     12012     12011     12010     12013     12012     12010     12013
     12010     12013     12014     12010     12013     12015     12010     12013     12016
     12014     12013     12015     12014     12013     12016     12015     12013     12016
     12013     12016     12017     12013     12016     12018     12013     12016     12019
     12017     12016     12018     12017     12016     12019     12018     12016     12019
     12016     12019     12020     12016     12019     12021     12016     12019     12022
     12020     12019     12021     12020     12019     12022     12021     12019     12022
     12019     12022     12023     12019     12022     12024     12019     12022     12025
     12023     12022     12024     12023     12022     12025     12024     12022     12025
     12022     12025     12026     12022     12025     12027     12022     12025     12028
     12026     12025     12027     12026     12025     12028     12027     12025     12028
     12025     12028     12029     12025     12028     12030     12025     12028     12031
     12029     12028     12030     12029     12028     12031     12030     12028     12031
     12028     12031     12032     12028     12031     12033     12028     12031     12034
     12032     12031     12033     12032     12031     12034     12033     12031     12034
     12031     12034     12035     12031     12034     12036     12031     12034     12037
     12035     12034     12036     12035     12034     12037     12036     12034     12037
     12034     12037     12038     12034     12037     12039     12034     12037     12040
     12038     12037     12039     12038     12037     12040     12039     12037     12040
     12037     12040     12041     12037     12040     12042     12037     12040     12043
     12041     12040     12042     12041     12040     12043     12042     12040     12043
     12040     12043     12044     12040     12043     12045     12040     12043     12046
     12044     12043     12045     12044     12043     12046     12045     12043     12046
     12043     12046     12047     12043     12046     12048     12043     12046     12049
     12047     12046     12048     12047     12046     12049     12048     12046     12049
     12046     12049     12050     12046     12049     12051     12046     12049     12052
     12050     12049     12051     12050     12049     12052     12051     12049     12052
     12054     12053     12055     12054     12053     12056     12054     12053     12057
     12055     12053     12056     12055     12053     12057     12056     12053     12057
     12053     12057     12058     12053     12057     12059     12053     12057     12062
     12058     12057     12059     12058     12057     12062     12059     12057     12062
     12057     12059     12060     12057     12059     12061     12060     12059     12061
     12057     12062     12063     12057     12062     12064     12057     12062     12068
     12063     12062     12064     12063     12062     12068     12064     12062     12068
     12066     12065     12067     12066     12065     12068     12066     12065     12069
     12067     12065     12068     12067     12065     12069     12068     12065     12069
     12062     12068     12065     12065     12069     12070     12069     12070     12071
     12069     12070     12072     12069     12070     12073     12071     12070     12072
     12071     12070     12073     12072     12070     12073     12070     12073     12074
     12070     12073     12075     12070     12073     12081     12074     12073     12075
     12074     12073     12081     12075     12073     12081     12073     12075     12076
     12075     12076     12077     12075     12076     12078     12077     12076     12078
     12076     12078     12079     12076     12078     12080     12076     12078     12090
     12079     12078     12080     12079     12078     12090     12080     12078     12090
     12073     12081     12082     12073     12081     12083     12073     12081     12084
     12082     12081     12083     12082     12081     12084     12083     12081     12084
     12081     12084     12085     12084     12085     12086     12084     12085     12087
     12086     12085     12087     12085     12087     12088     12085     12087     12089
     12085     12087     12137     12088     12087     12089     12088     12087     12137
     12089     12087     12137     12078     12090     12091     12078     12090     12092
     12078     12090     12093     12091     12090     12092     12091     12090     12093
     12092     12090     12093     12090     12093     12094     12090     12093     12095
     12090     12093     12096     12094     12093     12095     12094     12093     12096
     12095     12093     12096     12093     12096     12097     12093     12096     12098
     12093     12096     12099     12097     12096     12098     12097     12096     12099
     12098     12096     12099     12096     12099     12100     12096     12099     12101
     12096     12099     12102     12100     12099     12101     12100     12099     12102
     12101     12099     12102     12099     12102     12103     12099     12102     12104
     12099     12102     12105     12103     12102     12104     12103     12102     12105
     12104     12102     12105     12102     12105     12106     12102     12105     12107
     12102     12105     12108     12106     12105     12107     12106     12105     12108
     12107     12105     12108     12105     12108     12109     12105     12108     12110
     12109     12108     12110     12108     12110     12111     12108     12110     12112
     12111     12110     12112     12110     12112     12113     12110     12112     12114
     12110     12112     12115     12113     12112     12114     12113     12112     12115
     12114     12112     12115     12112     12115     12116     12112     12115     12117
     12112     12115     12118     12116     12115     12117     12116     12115     12118
     12117     12115     12118     12115     12118     12119     12115     12118     12120
     12115     12118     12121     12119     12118     12120     12119     12118     12121
     12120     12118     12121     12118     12121     12122     12118     12121     12123
     12118     12121     12124     12122     12121     12123     12122     12121     12124
     12123     12121     12124     12121     12124     12125     12121     12124     12126
     12121     12124     12127     12125     12124     12126     12125     12124     12127
     12126     12124     12127     12124     12127     12128     12124     12127     12129
     12124     12127     12130     12128     12127     12129     12128     12127     12130
     12129     12127     12130     12127     12130     12131     12127     12130     12132
     12127     12130     12133     12131     12130     12132     12131     12130     12133
     12132     12130     12133     12130     12133     12134     12130     12133     12135
     12130     12133     12136     12134     12133     12135     12134     12133     12136
     12135     12133     12136     12087     12137     12138     12087     12137     12139
     12087     12137     12140     12138     12137     12139     12138     12137     12140
     12139     12137     12140     12137     12140     12141     12137     12140     12142
     12137     12140     12143     12141     12140     12142     12141     12140     12143
     12142     12140     12143     12140     12143     12144     12140     12143     12145
     12140     12143     12146     12144     12143     12145     12144     12143     12146
     12145     12143     12146     12143     12146     12147     12143     12146     12148
     12143     12146     12149     12147     12146     12148     12147     12146     12149
     12148     12146     12149     12146     12149     12150     12146     12149     12151
     12146     12149     12152     12150     12149     12151     12150     12149     12152
     12151     12149     12152     12149     12152     12153     12149     12152     12154
     12149     12152     12155     12153     12152     12154     12153     12152     12155
     12154     12152     12155     12152     12155     12156     12152     12155     12157
     12152     12155     12158     12156     12155     12157     12156     12155     12158
     12157     12155     12158     12155     12158     12159     12155     12158     12160
     12155     12158     12161     12159     12158     12160     12159     12158     12161
     12160     12158     12161     12158     12161     12162     12158     12161     12163
     12158     12161     12164     12162     12161     12163     12162     12161     12164
     12163     12161     12164     12161     12164     12165     12161     12164     12166
     12161     12164     12167     12165     12164     12166     12165     12164     12167
     12166     12164     12167     12164     12167     12168     12164     12167     12169
     12164     12167     12170     12168     12167     12169     12168     12167     12170
     12169     12167     12170     12167     12170     12171     12167     12170     12172
     12167     12170     12173     12171     12170     12172     12171     12170     12173
     12172     12170     12173     12170     12173     12174     12170     12173     12175
     12170     12173     12176     12174     12173     12175     12174     12173     12176
     12175     12173     12176     12173     12176     12177     12173     12176     12178
     12173     12176     12179     12177     12176     12178     12177     12176     12179
     12178     12176     12179     12181     12180     12184     12181     12180     12188
     12181     12180     12192     12184     12180     12188     12184     12180     12192
     12188     12180     12192     12180     12181     12182     12180     12181     12183
     12180     12181     12196     12182     12181     12183     12182     12181     12196
     12183     12181     12196     12180     12184     12185     12180     12184     12186
     12180     12184     12187     12185     12184     12186     12185     12184     12187
     12186     12184     12187     12180     12188     12189     12180     12188     12190
     12180     12188     12191     12189     12188     12190     12189     12188     12191
     12190     12188     12191     12180     12192     12193     12180     12192     12194
     12180     12192     12195     12193     12192     12194     12193     12192     12195
     12194     12192     12195     12181     12196     12197     12181     12196     12198
     12181     12196     12202     12197     12196     12198     12197     12196     12202
     12198     12196     12202     12200     12199     12201     12200     12199     12202
     12200     12199     12203     12201     12199     12202     12201     12199     12203
     12202     12199     12203     12196     12202     12199     12199     12203     12204
     12203     12204     12205     12203     12204     12206     12203     12204     12207
     12205     12204     12206     12205     12204     12207     12206     12204     12207
     12204     12207     12208     12204     12207     12209     12204     12207     12215
     12208     12207     12209     12208     12207     12215     12209     12207     12215
     12207     12209     12210     12209     12210     12211     12209     12210     12212
     12211     12210     12212     12210     12212     12213     12210     12212     12214
     12210     12212     12224     12213     12212     12214     12213     12212     12224
     12214     12212     12224     12207     12215     12216     12207     12215     12217
     12207     12215     12218     12216     12215     12217     12216     12215     12218
     12217     12215     12218     12215     12218     12219     12218     12219     12220
     12218     12219     12221     12220     12219     12221     12219     12221     12222
     12219     12221     12223     12219     12221     12271     12222     12221     12223
     12222     12221     12271     12223     12221     12271     12212     12224     12225
     12212     12224     12226     12212     12224     12227     12225     12224     12226
     12225     12224     12227     12226     12224     12227     12224     12227     12228
     12224     12227     12229     12224     12227     12230     12228     12227     12229
     12228     12227     12230     12229     12227     12230     12227     12230     12231
     12227     12230     12232     12227     12230     12233     12231     12230     12232
     12231     12230     12233     12232     12230     12233     12230     12233     12234
     12230     12233     12235     12230     12233     12236     12234     12233     12235
     12234     12233     12236     12235     12233     12236     12233     12236     12237
     12233     12236     12238     12233     12236     12239     12237     12236     12238
     12237     12236     12239     12238     12236     12239     12236     12239     12240
     12236     12239     12241     12236     12239     12242     12240     12239     12241
     12240     12239     12242     12241     12239     12242     12239     12242     12243
     12239     12242     12244     12243     12242     12244     12242     12244     12245
     12242     12244     12246     12245     12244     12246     12244     12246     12247
     12244     12246     12248     12244     12246     12249     12247     12246     12248
     12247     12246     12249     12248     12246     12249     12246     12249     12250
     12246     12249     12251     12246     12249     12252     12250     12249     12251
     12250     12249     12252     12251     12249     12252     12249     12252     12253
     12249     12252     12254     12249     12252     12255     12253     12252     12254
     12253     12252     12255     12254     12252     12255     12252     12255     12256
     12252     12255     12257     12252     12255     12258     12256     12255     12257
     12256     12255     12258     12257     12255     12258     12255     12258     12259
     12255     12258     12260     12255     12258     12261     12259     12258     12260
     12259     12258     12261     12260     12258     12261     12258     12261     12262
     12258     12261     12263     12258     12261     12264     12262     12261     12263
     12262     12261     12264     12263     12261     12264     12261     12264     12265
     12261     12264     12266     12261     12264     12267     12265     12264     12266
     12265     12264     12267     12266     12264     12267     12264     12267     12268
     12264     12267     12269     12264     12267     12270     12268     12267     12269
     12268     12267     12270     12269     12267     12270     12221     12271     12272
     12221     12271     12273     12221     12271     12274     12272     12271     12273
     12272     12271     12274     12273     12271     12274     12271     12274     12275
     12271     12274     12276     12271     12274     12277     12275     12274     12276
     12275     12274     12277     12276     12274     12277     12274     12277     12278
     12274     12277     12279     12274     12277     12280     12278     12277     12279
     12278     12277     12280     12279     12277     12280     12277     12280     12281
     12277     12280     12282     12277     12280     12283     12281     12280     12282
     12281     12280     12283     12282     12280     12283     12280     12283     12284
     12280     12283     12285     12280     12283     12286     12284     12283     12285
     12284     12283     12286     12285     12283     12286     12283     12286     12287
     12283     12286     12288     12283     12286     12289     12287     12286     12288
     12287     12286     12289     12288     12286     12289     12286     12289     12290
     12286     12289     12291     12286     12289     12292     12290     12289     12291
     12290     12289     12292     12291     12289     12292     12289     12292     12293
     12289     12292     12294     12289     12292     12295     12293     12292     12294
     12293     12292     12295     12294     12292     12295     12292     12295     12296
     12292     12295     12297     12292     12295     12298     12296     12295     12297
     12296     12295     12298     12297     12295     12298     12295     12298     12299
     12295     12298     12300     12295     12298     12301     12299     12298     12300
     12299     12298     12301     12300     12298     12301     12298     12301     12302
     12298     12301     12303     12298     12301     12304     12302     12301     12303
     12302     12301     12304     12303     12301     12304     12301     12304     12305
     12301     12304     12306     12301     12304     12307     12305     12304     12306
     12305     12304     12307     12306     12304     12307     12304     12307     12308
     12304     12307     12309     12304     12307     12310     12308     12307     12309
     12308     12307     12310     12309     12307     12310     12307     12310     12311
     12307     12310     12312     12307     12310     12313     12311     12310     12312
     12311     12310     12313     12312     12310     12313     12315     12314     12316
     12315     12314     12317     12315     12314     12318     12316     12314     12317
     12316     12314     12318     12317     12314     12318     12314     12318     12319
     12314     12318     12320     12314     12318     12323     12319     12318     12320
     12319     12318     12323     12320     12318     12323     12318     12320     12321
     12318     12320     12322     12321     12320     12322     12318     12323     12324
     12318     12323     12325     12318     12323     12329     12324     12323     12325
     12324     12323     12329     12325     12323     12329     12327     12326     12328
     12327     12326     12329     12327     12326     12330     12328     12326     12329
     12328     12326     12330     12329     12326     12330     12323     12329     12326
     12326     12330     12331     12330     12331     12332     12330     12331     12333
     12330     12331     12334     12332     12331     12333     12332     12331     12334
     12333     12331     12334     12331     12334     12335     12331     12334     12336
     12331     12334     12342     12335     12334     12336     12335     12334     12342
     12336     12334     12342     12334     12336     12337     12336     12337     12338
     12336     12337     12339     12338     12337     12339     12337     12339     12340
     12337     12339     12341     12337     12339     12351     12340     12339     12341
     12340     12339     12351     12341     12339     12351     12334     12342     12343
     12334     12342     12344     12334     12342     12345     12343     12342     12344
     12343     12342     12345     12344     12342     12345     12342     12345     12346
     12345     12346     12347     12345     12346     12348     12347     12346     12348
     12346     12348     12349     12346     12348     12350     12346     12348     12398
     12349     12348     12350     12349     12348     12398     12350     12348     12398
     12339     12351     12352     12339     12351     12353     12339     12351     12354
     12352     12351     12353     12352     12351     12354     12353     12351     12354
     12351     12354     12355     12351     12354     12356     12351     12354     12357
     12355     12354     12356     12355     12354     12357     12356     12354     12357
     12354     12357     12358     12354     12357     12359     12354     12357     12360
     12358     12357     12359     12358     12357     12360     12359     12357     12360
     12357     12360     12361     12357     12360     12362     12357     12360     12363
     12361     12360     12362     12361     12360     12363     12362     12360     12363
     12360     12363     12364     12360     12363     12365     12360     12363     12366
     12364     12363     12365     12364     12363     12366     12365     12363     12366
     12363     12366     12367     12363     12366     12368     12363     12366     12369
     12367     12366     12368     12367     12366     12369     12368     12366     12369
     12366     12369     12370     12366     12369     12371     12370     12369     12371
     12369     12371     12372     12369     12371     12373     12372     12371     12373
     12371     12373     12374     12371     12373     12375     12371     12373     12376
     12374     12373     12375     12374     12373     12376     12375     12373     12376
     12373     12376     12377     12373     12376     12378     12373     12376     12379
     12377     12376     12378     12377     12376     12379     12378     12376     12379
     12376     12379     12380     12376     12379     12381     12376     12379     12382
     12380     12379     12381     12380     12379     12382     12381     12379     12382
     12379     12382     12383     12379     12382     12384     12379     12382     12385
     12383     12382     12384     12383     12382     12385     12384     12382     12385
     12382     12385     12386     12382     12385     12387     12382     12385     12388
     12386     12385     12387     12386     12385     12388     12387     12385     12388
     12385     12388     12389     12385     12388     12390     12385     12388     12391
     12389     12388     12390     12389     12388     12391     12390     12388     12391
     12388     12391     12392     12388     12391     12393     12388     12391     12394
     12392     12391     12393     12392     12391     12394     12393     12391     12394
     12391     12394     12395     12391     12394     12396     12391     12394     12397
     12395     12394     12396     12395     12394     12397     12396     12394     12397
     12348     12398     12399     12348     12398     12400     12348     12398     12401
     12399     12398     12400     12399     12398     12401     12400     12398     12401
     12398     12401     12402     12398     12401     12403     12398     12401     12404
     12402     12401     12403     12402     12401     12404     12403     12401     12404
     12401     12404     12405     12401     12404     12406     12401     12404     12407
     12405     12404     12406     12405     12404     12407     12406     12404     12407
     12404     12407     12408     12404     12407     12409     12404     12407     12410
     12408     12407     12409     12408     12407     12410     12409     12407     12410
     12407     12410     12411     12407     12410     12412     12407     12410     12413
     12411     12410     12412     12411     12410     12413     12412     12410     12413
     12410     12413     12414     12410     12413     12415     12410     12413     12416
     12414     12413     12415     12414     12413     12416     12415     12413     12416
     12413     12416     12417     12413     12416     12418     12413     12416     12419
     12417     12416     12418     12417     12416     12419     12418     12416     12419
     12416     12419     12420     12416     12419     12421     12416     12419     12422
     12420     12419     12421     12420     12419     12422     12421     12419     12422
     12419     12422     12423     12419     12422     12424     12419     12422     12425
     12423     12422     12424     12423     12422     12425     12424     12422     12425
     12422     12425     12426     12422     12425     12427     12422     12425     12428
     12426     12425     12427     12426     12425     12428     12427     12425     12428
     12425     12428     12429     12425     12428     12430     12425     12428     12431
     12429     12428     12430     12429     12428     12431     12430     12428     12431
     12428     12431     12432     12428     12431     12433     12428     12431     12434
     12432     12431     12433     12432     12431     12434     12433     12431     12434
     12431     12434     12435     12431     12434     12436     12431     12434     12437
     12435     12434     12436     12435     12434     12437     12436     12434     12437
     12434     12437     12438     12434     12437     12439     12434     12437     12440
     12438     12437     12439     12438     12437     12440     12439     12437     12440
     12442     12441     12445     12442     12441     12449     12442     12441     12453
     12445     12441     12449     12445     12441     12453     12449     12441     12453
     12441     12442     12443     12441     12442     12444     12441     12442     12457
     12443     12442     12444     12443     12442     12457     12444     12442     12457
     12441     12445     12446     12441     12445     12447     12441     12445     12448
     12446     12445     12447     12446     12445     12448     12447     12445     12448
     12441     12449     12450     12441     12449     12451     12441     12449     12452
     12450     12449     12451     12450     12449     12452     12451     12449     12452
     12441     12453     12454     12441     12453     12455     12441     12453     12456
     12454     12453     12455     12454     12453     12456     12455     12453     12456
     12442     12457     12458     12442     12457     12459     12442     12457     12463
     12458     12457     12459     12458     12457     12463     12459     12457     12463
     12461     12460     12462     12461     12460     12463     12461     12460     12464
     12462     12460     12463     12462     12460     12464     12463     12460     12464
     12457     12463     12460     12460     12464     12465     12464     12465     12466
     12464     12465     12467     12464     12465     12468     12466     12465     12467
     12466     12465     12468     12467     12465     12468     12465     12468     12469
     12465     12468     12470     12465     12468     12476     12469     12468     12470
     12469     12468     12476     12470     12468     12476     12468     12470     12471
     12470     12471     12472     12470     12471     12473     12472     12471     12473
     12471     12473     12474     12471     12473     12475     12471     12473     12485
     12474     12473     12475     12474     12473     12485     12475     12473     12485
     12468     12476     12477     12468     12476     12478     12468     12476     12479
     12477     12476     12478     12477     12476     12479     12478     12476     12479
     12476     12479     12480     12479     12480     12481     12479     12480     12482
     12481     12480     12482     12480     12482     12483     12480     12482     12484
     12480     12482     12532     12483     12482     12484     12483     12482     12532
     12484     12482     12532     12473     12485     12486     12473     12485     12487
     12473     12485     12488     12486     12485     12487     12486     12485     12488
     12487     12485     12488     12485     12488     12489     12485     12488     12490
     12485     12488     12491     12489     12488     12490     12489     12488     12491
     12490     12488     12491     12488     12491     12492     12488     12491     12493
     12488     12491     12494     12492     12491     12493     12492     12491     12494
     12493     12491     12494     12491     12494     12495     12491     12494     12496
     12491     12494     12497     12495     12494     12496     12495     12494     12497
     12496     12494     12497     12494     12497     12498     12494     12497     12499
     12494     12497     12500     12498     12497     12499     12498     12497     12500
     12499     12497     12500     12497     12500     12501     12497     12500     12502
     12497     12500     12503     12501     12500     12502     12501     12500     12503
     12502     12500     12503     12500     12503     12504     12500     12503     12505
     12504     12503     12505     12503     12505     12506     12503     12505     12507
     12506     12505     12507     12505     12507     12508     12505     12507     12509
     12505     12507     12510     12508     12507     12509     12508     12507     12510
     12509     12507     12510     12507     12510     12511     12507     12510     12512
     12507     12510     12513     12511     12510     12512     12511     12510     12513
     12512     12510     12513     12510     12513     12514     12510     12513     12515
     12510     12513     12516     12514     12513     12515     12514     12513     12516
     12515     12513     12516     12513     12516     12517     12513     12516     12518
     12513     12516     12519     12517     12516     12518     12517     12516     12519
     12518     12516     12519     12516     12519     12520     12516     12519     12521
     12516     12519     12522     12520     12519     12521     12520     12519     12522
     12521     12519     12522     12519     12522     12523     12519     12522     12524
     12519     12522     12525     12523     12522     12524     12523     12522     12525
     12524     12522     12525     12522     12525     12526     12522     12525     12527
     12522     12525     12528     12526     12525     12527     12526     12525     12528
     12527     12525     12528     12525     12528     12529     12525     12528     12530
     12525     12528     12531     12529     12528     12530     12529     12528     12531
     12530     12528     12531     12482     12532     12533     12482     12532     12534
     12482     12532     12535     12533     12532     12534     12533     12532     12535
     12534     12532     12535     12532     12535     12536     12532     12535     12537
     12532     12535     12538     12536     12535     12537     12536     12535     12538
     12537     12535     12538     12535     12538     12539     12535     12538     12540
     12535     12538     12541     12539     12538     12540     12539     12538     12541
     12540     12538     12541     12538     12541     12542     12538     12541     12543
     12538     12541     12544     12542     12541     12543     12542     12541     12544
     12543     12541     12544     12541     12544     12545     12541     12544     12546
     12541     12544     12547     12545     12544     12546     12545     12544     12547
     12546     12544     12547     12544     12547     12548     12544     12547     12549
     12544     12547     12550     12548     12547     12549     12548     12547     12550
     12549     12547     12550     12547     12550     12551     12547     12550     12552
     12547     12550     12553     12551     12550     12552     12551     12550     12553
     12552     12550     12553     12550     12553     12554     12550     12553     12555
     12550     12553     12556     12554     12553     12555     12554     12553     12556
     12555     12553     12556     12553     12556     12557     12553     12556     12558
     12553     12556     12559     12557     12556     12558     12557     12556     12559
     12558     12556     12559     12556     12559     12560     12556     12559     12561
     12556     12559     12562     12560     12559     12561     12560     12559     12562
     12561     12559     12562     12559     12562     12563     12559     12562     12564
     12559     12562     12565     12563     12562     12564     12563     12562     12565
     12564     12562     12565     12562     12565     12566     12562     12565     12567
     12562     12565     12568     12566     12565     12567     12566     12565     12568
     12567     12565     12568     12565     12568     12569     12565     12568     12570
     12565     12568     12571     12569     12568     12570     12569     12568     12571
     12570     12568     12571     12568     12571     12572     12568     12571     12573
     12568     12571     12574     12572     12571     12573     12572     12571     12574
     12573     12571     12574     12576     12575     12579     12576     12575     12583
     12576     12575     12587     12579     12575     12583     12579     12575     12587
     12583     12575     12587     12575     12576     12577     12575     12576     12578
     12575     12576     12591     12577     12576     12578     12577     12576     12591
     12578     12576     12591     12575     12579     12580     12575     12579     12581
     12575     12579     12582     12580     12579     12581     12580     12579     12582
     12581     12579     12582     12575     12583     12584     12575     12583     12585
     12575     12583     12586     12584     12583     12585     12584     12583     12586
     12585     12583     12586     12575     12587     12588     12575     12587     12589
     12575     12587     12590     12588     12587     12589     12588     12587     12590
     12589     12587     12590     12576     12591     12592     12576     12591     12593
     12576     12591     12597     12592     12591     12593     12592     12591     12597
     12593     12591     12597     12595     12594     12596     12595     12594     12597
     12595     12594     12598     12596     12594     12597     12596     12594     12598
     12597     12594     12598     12591     12597     12594     12594     12598     12599
     12598     12599     12600     12598     12599     12601     12598     12599     12602
     12600     12599     12601     12600     12599     12602     12601     12599     12602
     12599     12602     12603     12599     12602     12604     12599     12602     12610
     12603     12602     12604     12603     12602     12610     12604     12602     12610
     12602     12604     12605     12604     12605     12606     12604     12605     12607
     12606     12605     12607     12605     12607     12608     12605     12607     12609
     12605     12607     12619     12608     12607     12609     12608     12607     12619
     12609     12607     12619     12602     12610     12611     12602     12610     12612
     12602     12610     12613     12611     12610     12612     12611     12610     12613
     12612     12610     12613     12610     12613     12614     12613     12614     12615
     12613     12614     12616     12615     12614     12616     12614     12616     12617
     12614     12616     12618     12614     12616     12666     12617     12616     12618
     12617     12616     12666     12618     12616     12666     12607     12619     12620
     12607     12619     12621     12607     12619     12622     12620     12619     12621
     12620     12619     12622     12621     12619     12622     12619     12622     12623
     12619     12622     12624     12619     12622     12625     12623     12622     12624
     12623     12622     12625     12624     12622     12625     12622     12625     12626
     12622     12625     12627     12622     12625     12628     12626     12625     12627
     12626     12625     12628     12627     12625     12628     12625     12628     12629
     12625     12628     12630     12625     12628     12631     12629     12628     12630
     12629     12628     12631     12630     12628     12631     12628     12631     12632
     12628     12631     12633     12628     12631     12634     12632     12631     12633
     12632     12631     12634     12633     12631     12634     12631     12634     12635
     12631     12634     12636     12631     12634     12637     12635     12634     12636
     12635     12634     12637     12636     12634     12637     12634     12637     12638
     12634     12637     12639     12638     12637     12639     12637     12639     12640
     12637     12639     12641     12640     12639     12641     12639     12641     12642
     12639     12641     12643     12639     12641     12644     12642     12641     12643
     12642     12641     12644     12643     12641     12644     12641     12644     12645
     12641     12644     12646     12641     12644     12647     12645     12644     12646
     12645     12644     12647     12646     12644     12647     12644     12647     12648
     12644     12647     12649     12644     12647     12650     12648     12647     12649
     12648     12647     12650     12649     12647     12650     12647     12650     12651
     12647     12650     12652     12647     12650     12653     12651     12650     12652
     12651     12650     12653     12652     12650     12653     12650     12653     12654
     12650     12653     12655     12650     12653     12656     12654     12653     12655
     12654     12653     12656     12655     12653     12656     12653     12656     12657
     12653     12656     12658     12653     12656     12659     12657     12656     12658
     12657     12656     12659     12658     12656     12659     12656     12659     12660
     12656     12659     12661     12656     12659     12662     12660     12659     12661
     12660     12659     12662     12661     12659     12662     12659     12662     12663
     12659     12662     12664     12659     12662     12665     12663     12662     12664
     12663     12662     12665     12664     12662     12665     12616     12666     12667
     12616     12666     12668     12616     12666     12669     12667     12666     12668
     12667     12666     12669     12668     12666     12669     12666     12669     12670
     12666     12669     12671     12666     12669     12672     12670     12669     12671
     12670     12669     12672     12671     12669     12672     12669     12672     12673
     12669     12672     12674     12669     12672     12675     12673     12672     12674
     12673     12672     12675     12674     12672     12675     12672     12675     12676
     12672     12675     12677     12672     12675     12678     12676     12675     12677
     12676     12675     12678     12677     12675     12678     12675     12678     12679
     12675     12678     12680     12675     12678     12681     12679     12678     12680
     12679     12678     12681     12680     12678     12681     12678     12681     12682
     12678     12681     12683     12678     12681     12684     12682     12681     12683
     12682     12681     12684     12683     12681     12684     12681     12684     12685
     12681     12684     12686     12681     12684     12687     12685     12684     12686
     12685     12684     12687     12686     12684     12687     12684     12687     12688
     12684     12687     12689     12684     12687     12690     12688     12687     12689
     12688     12687     12690     12689     12687     12690     12687     12690     12691
     12687     12690     12692     12687     12690     12693     12691     12690     12692
     12691     12690     12693     12692     12690     12693     12690     12693     12694
     12690     12693     12695     12690     12693     12696     12694     12693     12695
     12694     12693     12696     12695     12693     12696     12693     12696     12697
     12693     12696     12698     12693     12696     12699     12697     12696     12698
     12697     12696     12699     12698     12696     12699     12696     12699     12700
     12696     12699     12701     12696     12699     12702     12700     12699     12701
     12700     12699     12702     12701     12699     12702     12699     12702     12703
     12699     12702     12704     12699     12702     12705     12703     12702     12704
     12703     12702     12705     12704     12702     12705     12702     12705     12706
     12702     12705     12707     12702     12705     12708     12706     12705     12707
     12706     12705     12708     12707     12705     12708     12710     12709     12713
     12710     12709     12717     12710     12709     12721     12713     12709     12717
     12713     12709     12721     12717     12709     12721     12709     12710     12711
     12709     12710     12712     12709     12710     12725     12711     12710     12712
     12711     12710     12725     12712     12710     12725     12709     12713     12714
     12709     12713     12715     12709     12713     12716     12714     12713     12715
     12714     12713     12716     12715     12713     12716     12709     12717     12718
     12709     12717     12719     12709     12717     12720     12718     12717     12719
     12718     12717     12720     12719     12717     12720     12709     12721     12722
     12709     12721     12723     12709     12721     12724     12722     12721     12723
     12722     12721     12724     12723     12721     12724     12710     12725     12726
     12710     12725     12727     12710     12725     12731     12726     12725     12727
     12726     12725     12731     12727     12725     12731     12729     12728     12730
     12729     12728     12731     12729     12728     12732     12730     12728     12731
     12730     12728     12732     12731     12728     12732     12725     12731     12728
     12728     12732     12733     12732     12733     12734     12732     12733     12735
     12732     12733     12736     12734     12733     12735     12734     12733     12736
     12735     12733     12736     12733     12736     12737     12733     12736     12738
     12733     12736     12744     12737     12736     12738     12737     12736     12744
     12738     12736     12744     12736     12738     12739     12738     12739     12740
     12738     12739     12741     12740     12739     12741     12739     12741     12742
     12739     12741     12743     12739     12741     12753     12742     12741     12743
     12742     12741     12753     12743     12741     12753     12736     12744     12745
     12736     12744     12746     12736     12744     12747     12745     12744     12746
     12745     12744     12747     12746     12744     12747     12744     12747     12748
     12747     12748     12749     12747     12748     12750     12749     12748     12750
     12748     12750     12751     12748     12750     12752     12748     12750     12800
     12751     12750     12752     12751     12750     12800     12752     12750     12800
     12741     12753     12754     12741     12753     12755     12741     12753     12756
     12754     12753     12755     12754     12753     12756     12755     12753     12756
     12753     12756     12757     12753     12756     12758     12753     12756     12759
     12757     12756     12758     12757     12756     12759     12758     12756     12759
     12756     12759     12760     12756     12759     12761     12756     12759     12762
     12760     12759     12761     12760     12759     12762     12761     12759     12762
     12759     12762     12763     12759     12762     12764     12759     12762     12765
     12763     12762     12764     12763     12762     12765     12764     12762     12765
     12762     12765     12766     12762     12765     12767     12762     12765     12768
     12766     12765     12767     12766     12765     12768     12767     12765     12768
     12765     12768     12769     12765     12768     12770     12765     12768     12771
     12769     12768     12770     12769     12768     12771     12770     12768     12771
     12768     12771     12772     12768     12771     12773     12772     12771     12773
     12771     12773     12774     12771     12773     12775     12774     12773     12775
     12773     12775     12776     12773     12775     12777     12773     12775     12778
     12776     12775     12777     12776     12775     12778     12777     12775     12778
     12775     12778     12779     12775     12778     12780     12775     12778     12781
     12779     12778     12780     12779     12778     12781     12780     12778     12781
     12778     12781     12782     12778     12781     12783     12778     12781     12784
     12782     12781     12783     12782     12781     12784     12783     12781     12784
     12781     12784     12785     12781     12784     12786     12781     12784     12787
     12785     12784     12786     12785     12784     12787     12786     12784     12787
     12784     12787     12788     12784     12787     12789     12784     12787     12790
     12788     12787     12789     12788     12787     12790     12789     12787     12790
     12787     12790     12791     12787     12790     12792     12787     12790     12793
     12791     12790     12792     12791     12790     12793     12792     12790     12793
     12790     12793     12794     12790     12793     12795     12790     12793     12796
     12794     12793     12795     12794     12793     12796     12795     12793     12796
     12793     12796     12797     12793     12796     12798     12793     12796     12799
     12797     12796     12798     12797     12796     12799     12798     12796     12799
     12750     12800     12801     12750     12800     12802     12750     12800     12803
     12801     12800     12802     12801     12800     12803     12802     12800     12803
     12800     12803     12804     12800     12803     12805     12800     12803     12806
     12804     12803     12805     12804     12803     12806     12805     12803     12806
     12803     12806     12807     12803     12806     12808     12803     12806     12809
     12807     12806     12808     12807     12806     12809     12808     12806     12809
     12806     12809     12810     12806     12809     12811     12806     12809     12812
     12810     12809     12811     12810     12809     12812     12811     12809     12812
     12809     12812     12813     12809     12812     12814     12809     12812     12815
     12813     12812     12814     12813     12812     12815     12814     12812     12815
     12812     12815     12816     12812     12815     12817     12812     12815     12818
     12816     12815     12817     12816     12815     12818     12817     12815     12818
     12815     12818     12819     12815     12818     12820     12815     12818     12821
     12819     12818     12820     12819     12818     12821     12820     12818     12821
     12818     12821     12822     12818     12821     12823     12818     12821     12824
     12822     12821     12823     12822     12821     12824     12823     12821     12824
     12821     12824     12825     12821     12824     12826     12821     12824     12827
     12825     12824     12826     12825     12824     12827     12826     12824     12827
     12824     12827     12828     12824     12827     12829     12824     12827     12830
     12828     12827     12829     12828     12827     12830     12829     12827     12830
     12827     12830     12831     12827     12830     12832     12827     12830     12833
     12831     12830     12832     12831     12830     12833     12832     12830     12833
     12830     12833     12834     12830     12833     12835     12830     12833     12836
     12834     12833     12835     12834     12833     12836     12835     12833     12836
     12833     12836     12837     12833     12836     12838     12833     12836     12839
     12837     12836     12838     12837     12836     12839     12838     12836     12839
     12836     12839     12840     12836     12839     12841     12836     12839     12842
     12840     12839     12841     12840     12839     12842     12841     12839     12842
     12844     12843     12847     12844     12843     12851     12844     12843     12855
     12847     12843     12851     12847     12843     12855     12851     12843     12855
     12843     12844     12845     12843     12844     12846     12843     12844     12859
     12845     12844     12846     12845     12844     12859     12846     12844     12859
     12843     12847     12848     12843     12847     12849     12843     12847     12850
     12848     12847     12849     12848     12847     12850     12849     12847     12850
     12843     12851     12852     12843     12851     12853     12843     12851     12854
     12852     12851     12853     12852     12851     12854     12853     12851     12854
     12843     12855     12856     12843     12855     12857     12843     12855     12858
     12856     12855     12857     12856     12855     12858     12857     12855     12858
     12844     12859     12860     12844     12859     12861     12844     12859     12865
     12860     12859     12861     12860     12859     12865     12861     12859     12865
     12863     12862     12864     12863     12862     12865     12863     12862     12866
     12864     12862     12865     12864     12862     12866     12865     12862     12866
     12859     12865     12862     12862     12866     12867     12866     12867     12868
     12866     12867     12869     12866     12867     12870     12868     12867     12869
     12868     12867     12870     12869     12867     12870     12867     12870     12871
     12867     12870     12872     12867     12870     12878     12871     12870     12872
     12871     12870     12878     12872     12870     12878     12870     12872     12873
     12872     12873     12874     12872     12873     12875     12874     12873     12875
     12873     12875     12876     12873     12875     12877     12873     12875     12887
     12876     12875     12877     12876     12875     12887     12877     12875     12887
     12870     12878     12879     12870     12878     12880     12870     12878     12881
     12879     12878     12880     12879     12878     12881     12880     12878     12881
     12878     12881     12882     12881     12882     12883     12881     12882     12884
     12883     12882     12884     12882     12884     12885     12882     12884     12886
     12882     12884     12934     12885     12884     12886     12885     12884     12934
     12886     12884     12934     12875     12887     12888     12875     12887     12889
     12875     12887     12890     12888     12887     12889     12888     12887     12890
     12889     12887     12890     12887     12890     12891     12887     12890     12892
     12887     12890     12893     12891     12890     12892     12891     12890     12893
     12892     12890     12893     12890     12893     12894     12890     12893     12895
     12890     12893     12896     12894     12893     12895     12894     12893     12896
     12895     12893     12896     12893     12896     12897     12893     12896     12898
     12893     12896     12899     12897     12896     12898     12897     12896     12899
     12898     12896     12899     12896     12899     12900     12896     12899     12901
     12896     12899     12902     12900     12899     12901     12900     12899     12902
     12901     12899     12902     12899     12902     12903     12899     12902     12904
     12899     12902     12905     12903     12902     12904     12903     12902     12905
     12904     12902     12905     12902     12905     12906     12902     12905     12907
     12906     12905     12907     12905     12907     12908     12905     12907     12909
     12908     12907     12909     12907     12909     12910     12907     12909     12911
     12907     12909     12912     12910     12909     12911     12910     12909     12912
     12911     12909     12912     12909     12912     12913     12909     12912     12914
     12909     12912     12915     12913     12912     12914     12913     12912     12915
     12914     12912     12915     12912     12915     12916     12912     12915     12917
     12912     12915     12918     12916     12915     12917     12916     12915     12918
     12917     12915     12918     12915     12918     12919     12915     12918     12920
     12915     12918     12921     12919     12918     12920     12919     12918     12921
     12920     12918     12921     12918     12921     12922     12918     12921     12923
     12918     12921     12924     12922     12921     12923     12922     12921     12924
     12923     12921     12924     12921     12924     12925     12921     12924     12926
     12921     12924     12927     12925     12924     12926     12925     12924     12927
     12926     12924     12927     12924     12927     12928     12924     12927     12929
     12924     12927     12930     12928     12927     12929     12928     12927     12930
     12929     12927     12930     12927     12930     12931     12927     12930     12932
     12927     12930     12933     12931     12930     12932     12931     12930     12933
     12932     12930     12933     12884     12934     12935     12884     12934     12936
     12884     12934     12937     12935     12934     12936     12935     12934     12937
     12936     12934     12937     12934     12937     12938     12934     12937     12939
     12934     12937     12940     12938     12937     12939     12938     12937     12940
     12939     12937     12940     12937     12940     12941     12937     12940     12942
     12937     12940     12943     12941     12940     12942     12941     12940     12943
     12942     12940     12943     12940     12943     12944     12940     12943     12945
     12940     12943     12946     12944     12943     12945     12944     12943     12946
     12945     12943     12946     12943     12946     12947     12943     12946     12948
     12943     12946     12949     12947     12946     12948     12947     12946     12949
     12948     12946     12949     12946     12949     12950     12946     12949     12951
     12946     12949     12952     12950     12949     12951     12950     12949     12952
     12951     12949     12952     12949     12952     12953     12949     12952     12954
     12949     12952     12955     12953     12952     12954     12953     12952     12955
     12954     12952     12955     12952     12955     12956     12952     12955     12957
     12952     12955     12958     12956     12955     12957     12956     12955     12958
     12957     12955     12958     12955     12958     12959     12955     12958     12960
     12955     12958     12961     12959     12958     12960     12959     12958     12961
     12960     12958     12961     12958     12961     12962     12958     12961     12963
     12958     12961     12964     12962     12961     12963     12962     12961     12964
     12963     12961     12964     12961     12964     12965     12961     12964     12966
     12961     12964     12967     12965     12964     12966     12965     12964     12967
     12966     12964     12967     12964     12967     12968     12964     12967     12969
     12964     12967     12970     12968     12967     12969     12968     12967     12970
     12969     12967     12970     12967     12970     12971     12967     12970     12972
     12967     12970     12973     12971     12970     12972     12971     12970     12973
     12972     12970     12973     12970     12973     12974     12970     12973     12975
     12970     12973     12976     12974     12973     12975     12974     12973     12976
     12975     12973     12976     12978     12977     12981     12978     12977     12985
     12978     12977     12989     12981     12977     12985     12981     12977     12989
     12985     12977     12989     12977     12978     12979     12977     12978     12980
     12977     12978     12993     12979     12978     12980     12979     12978     12993
     12980     12978     12993     12977     12981     12982     12977     12981     12983
     12977     12981     12984     12982     12981     12983     12982     12981     12984
     12983     12981     12984     12977     12985     12986     12977     12985     12987
     12977     12985     12988     12986     12985     12987     12986     12985     12988
     12987     12985     12988     12977     12989     12990     12977     12989     12991
     12977     12989     12992     12990     12989     12991     12990     12989     12992
     12991     12989     12992     12978     12993     12994     12978     12993     12995
     12978     12993     12999     12994     12993     12995     12994     12993     12999
     12995     12993     12999     12997     12996     12998     12997     12996     12999
     12997     12996     13000     12998     12996     12999     12998     12996     13000
     12999     12996     13000     12993     12999     12996     12996     13000     13001
     13000     13001     13002     13000     13001     13003     13000     13001     13004
     13002     13001     13003     13002     13001     13004     13003     13001     13004
     13001     13004     13005     13001     13004     13006     13001     13004     13012
     13005     13004     13006     13005     13004     13012     13006     13004     13012
     13004     13006     13007     13006     13007     13008     13006     13007     13009
     13008     13007     13009     13007     13009     13010     13007     13009     13011
     13007     13009     13021     13010     13009     13011     13010     13009     13021
     13011     13009     13021     13004     13012     13013     13004     13012     13014
     13004     13012     13015     13013     13012     13014     13013     13012     13015
     13014     13012     13015     13012     13015     13016     13015     13016     13017
     13015     13016     13018     13017     13016     13018     13016     13018     13019
     13016     13018     13020     13016     13018     13068     13019     13018     13020
     13019     13018     13068     13020     13018     13068     13009     13021     13022
     13009     13021     13023     13009     13021     13024     13022     13021     13023
     13022     13021     13024     13023     13021     13024     13021     13024     13025
     13021     13024     13026     13021     13024     13027     13025     13024     13026
     13025     13024     13027     13026     13024     13027     13024     13027     13028
     13024     13027     13029     13024     13027     13030     13028     13027     13029
     13028     13027     13030     13029     13027     13030     13027     13030     13031
     13027     13030     13032     13027     13030     13033     13031     13030     13032
     13031     13030     13033     13032     13030     13033     13030     13033     13034
     13030     13033     13035     13030     13033     13036     13034     13033     13035
     13034     13033     13036     13035     13033     13036     13033     13036     13037
     13033     13036     13038     13033     13036     13039     13037     13036     13038
     13037     13036     13039     13038     13036     13039     13036     13039     13040
     13036     13039     13041     13040     13039     13041     13039     13041     13042
     13039     13041     13043     13042     13041     13043     13041     13043     13044
     13041     13043     13045     13041     13043     13046     13044     13043     13045
     13044     13043     13046     13045     13043     13046     13043     13046     13047
     13043     13046     13048     13043     13046     13049     13047     13046     13048
     13047     13046     13049     13048     13046     13049     13046     13049     13050
     13046     13049     13051     13046     13049     13052     13050     13049     13051
     13050     13049     13052     13051     13049     13052     13049     13052     13053
     13049     13052     13054     13049     13052     13055     13053     13052     13054
     13053     13052     13055     13054     13052     13055     13052     13055     13056
     13052     13055     13057     13052     13055     13058     13056     13055     13057
     13056     13055     13058     13057     13055     13058     13055     13058     13059
     13055     13058     13060     13055     13058     13061     13059     13058     13060
     13059     13058     13061     13060     13058     13061     13058     13061     13062
     13058     13061     13063     13058     13061     13064     13062     13061     13063
     13062     13061     13064     13063     13061     13064     13061     13064     13065
     13061     13064     13066     13061     13064     13067     13065     13064     13066
     13065     13064     13067     13066     13064     13067     13018     13068     13069
     13018     13068     13070     13018     13068     13071     13069     13068     13070
     13069     13068     13071     13070     13068     13071     13068     13071     13072
     13068     13071     13073     13068     13071     13074     13072     13071     13073
     13072     13071     13074     13073     13071     13074     13071     13074     13075
     13071     13074     13076     13071     13074     13077     13075     13074     13076
     13075     13074     13077     13076     13074     13077     13074     13077     13078
     13074     13077     13079     13074     13077     13080     13078     13077     13079
     13078     13077     13080     13079     13077     13080     13077     13080     13081
     13077     13080     13082     13077     13080     13083     13081     13080     13082
     13081     13080     13083     13082     13080     13083     13080     13083     13084
     13080     13083     13085     13080     13083     13086     13084     13083     13085
     13084     13083     13086     13085     13083     13086     13083     13086     13087
     13083     13086     13088     13083     13086     13089     13087     13086     13088
     13087     13086     13089     13088     13086     13089     13086     13089     13090
     13086     13089     13091     13086     13089     13092     13090     13089     13091
     13090     13089     13092     13091     13089     13092     13089     13092     13093
     13089     13092     13094     13089     13092     13095     13093     13092     13094
     13093     13092     13095     13094     13092     13095     13092     13095     13096
     13092     13095     13097     13092     13095     13098     13096     13095     13097
     13096     13095     13098     13097     13095     13098     13095     13098     13099
     13095     13098     13100     13095     13098     13101     13099     13098     13100
     13099     13098     13101     13100     13098     13101     13098     13101     13102
     13098     13101     13103     13098     13101     13104     13102     13101     13103
     13102     13101     13104     13103     13101     13104     13101     13104     13105
     13101     13104     13106     13101     13104     13107     13105     13104     13106
     13105     13104     13107     13106     13104     13107     13104     13107     13108
     13104     13107     13109     13104     13107     13110     13108     13107     13109
     13108     13107     13110     13109     13107     13110     13112     13111     13115
     13112     13111     13119     13112     13111     13123     13115     13111     13119
     13115     13111     13123     13119     13111     13123     13111     13112     13113
     13111     13112     13114     13111     13112     13127     13113     13112     13114
     13113     13112     13127     13114     13112     13127     13111     13115     13116
     13111     13115     13117     13111     13115     13118     13116     13115     13117
     13116     13115     13118     13117     13115     13118     13111     13119     13120
     13111     13119     13121     13111     13119     13122     13120     13119     13121
     13120     13119     13122     13121     13119     13122     13111     13123     13124
     13111     13123     13125     13111     13123     13126     13124     13123     13125
     13124     13123     13126     13125     13123     13126     13112     13127     13128
     13112     13127     13129     13112     13127     13133     13128     13127     13129
     13128     13127     13133     13129     13127     13133     13131     13130     13132
     13131     13130     13133     13131     13130     13134     13132     13130     13133
     13132     13130     13134     13133     13130     13134     13127     13133     13130
     13130     13134     13135     13134     13135     13136     13134     13135     13137
     13134     13135     13138     13136     13135     13137     13136     13135     13138
     13137     13135     13138     13135     13138     13139     13135     13138     13140
     13135     13138     13146     13139     13138     13140     13139     13138     13146
     13140     13138     13146     13138     13140     13141     13140     13141     13142
     13140     13141     13143     13142     13141     13143     13141     13143     13144
     13141     13143     13145     13141     13143     13155     13144     13143     13145
     13144     13143     13155     13145     13143     13155     13138     13146     13147
     13138     13146     13148     13138     13146     13149     13147     13146     13148
     13147     13146     13149     13148     13146     13149     13146     13149     13150
     13149     13150     13151     13149     13150     13152     13151     13150     13152
     13150     13152     13153     13150     13152     13154     13150     13152     13202
     13153     13152     13154     13153     13152     13202     13154     13152     13202
     13143     13155     13156     13143     13155     13157     13143     13155     13158
     13156     13155     13157     13156     13155     13158     13157     13155     13158
     13155     13158     13159     13155     13158     13160     13155     13158     13161
     13159     13158     13160     13159     13158     13161     13160     13158     13161
     13158     13161     13162     13158     13161     13163     13158     13161     13164
     13162     13161     13163     13162     13161     13164     13163     13161     13164
     13161     13164     13165     13161     13164     13166     13161     13164     13167
     13165     13164     13166     13165     13164     13167     13166     13164     13167
     13164     13167     13168     13164     13167     13169     13164     13167     13170
     13168     13167     13169     13168     13167     13170     13169     13167     13170
     13167     13170     13171     13167     13170     13172     13167     13170     13173
     13171     13170     13172     13171     13170     13173     13172     13170     13173
     13170     13173     13174     13170     13173     13175     13174     13173     13175
     13173     13175     13176     13173     13175     13177     13176     13175     13177
     13175     13177     13178     13175     13177     13179     13175     13177     13180
     13178     13177     13179     13178     13177     13180     13179     13177     13180
     13177     13180     13181     13177     13180     13182     13177     13180     13183
     13181     13180     13182     13181     13180     13183     13182     13180     13183
     13180     13183     13184     13180     13183     13185     13180     13183     13186
     13184     13183     13185     13184     13183     13186     13185     13183     13186
     13183     13186     13187     13183     13186     13188     13183     13186     13189
     13187     13186     13188     13187     13186     13189     13188     13186     13189
     13186     13189     13190     13186     13189     13191     13186     13189     13192
     13190     13189     13191     13190     13189     13192     13191     13189     13192
     13189     13192     13193     13189     13192     13194     13189     13192     13195
     13193     13192     13194     13193     13192     13195     13194     13192     13195
     13192     13195     13196     13192     13195     13197     13192     13195     13198
     13196     13195     13197     13196     13195     13198     13197     13195     13198
     13195     13198     13199     13195     13198     13200     13195     13198     13201
     13199     13198     13200     13199     13198     13201     13200     13198     13201
     13152     13202     13203     13152     13202     13204     13152     13202     13205
     13203     13202     13204     13203     13202     13205     13204     13202     13205
     13202     13205     13206     13202     13205     13207     13202     13205     13208
     13206     13205     13207     13206     13205     13208     13207     13205     13208
     13205     13208     13209     13205     13208     13210     13205     13208     13211
     13209     13208     13210     13209     13208     13211     13210     13208     13211
     13208     13211     13212     13208     13211     13213     13208     13211     13214
     13212     13211     13213     13212     13211     13214     13213     13211     13214
     13211     13214     13215     13211     13214     13216     13211     13214     13217
     13215     13214     13216     13215     13214     13217     13216     13214     13217
     13214     13217     13218     13214     13217     13219     13214     13217     13220
     13218     13217     13219     13218     13217     13220     13219     13217     13220
     13217     13220     13221     13217     13220     13222     13217     13220     13223
     13221     13220     13222     13221     13220     13223     13222     13220     13223
     13220     13223     13224     13220     13223     13225     13220     13223     13226
     13224     13223     13225     13224     13223     13226     13225     13223     13226
     13223     13226     13227     13223     13226     13228     13223     13226     13229
     13227     13226     13228     13227     13226     13229     13228     13226     13229
     13226     13229     13230     13226     13229     13231     13226     13229     13232
     13230     13229     13231     13230     13229     13232     13231     13229     13232
     13229     13232     13233     13229     13232     13234     13229     13232     13235
     13233     13232     13234     13233     13232     13235     13234     13232     13235
     13232     13235     13236     13232     13235     13237     13232     13235     13238
     13236     13235     13237     13236     13235     13238     13237     13235     13238
     13235     13238     13239     13235     13238     13240     13235     13238     13241
     13239     13238     13240     13239     13238     13241     13240     13238     13241
     13238     13241     13242     13238     13241     13243     13238     13241     13244
     13242     13241     13243     13242     13241     13244     13243     13241     13244
     13246     13245     13249     13246     13245     13253     13246     13245     13257
     13249     13245     13253     13249     13245     13257     13253     13245     13257
     13245     13246     13247     13245     13246     13248     13245     13246     13261
     13247     13246     13248     13247     13246     13261     13248     13246     13261
     13245     13249     13250     13245     13249     13251     13245     13249     13252
     13250     13249     13251     13250     13249     13252     13251     13249     13252
     13245     13253     13254     13245     13253     13255     13245     13253     13256
     13254     13253     13255     13254     13253     13256     13255     13253     13256
     13245     13257     13258     13245     13257     13259     13245     13257     13260
     13258     13257     13259     13258     13257     13260     13259     13257     13260
     13246     13261     13262     13246     13261     13263     13246     13261     13267
     13262     13261     13263     13262     13261     13267     13263     13261     13267
     13265     13264     13266     13265     13264     13267     13265     13264     13268
     13266     13264     13267     13266     13264     13268     13267     13264     13268
     13261     13267     13264     13264     13268     13269     13268     13269     13270
     13268     13269     13271     13268     13269     13272     13270     13269     13271
     13270     13269     13272     13271     13269     13272     13269     13272     13273
     13269     13272     13274     13269     13272     13280     13273     13272     13274
     13273     13272     13280     13274     13272     13280     13272     13274     13275
     13274     13275     13276     13274     13275     13277     13276     13275     13277
     13275     13277     13278     13275     13277     13279     13275     13277     13289
     13278     13277     13279     13278     13277     13289     13279     13277     13289
     13272     13280     13281     13272     13280     13282     13272     13280     13283
     13281     13280     13282     13281     13280     13283     13282     13280     13283
     13280     13283     13284     13283     13284     13285     13283     13284     13286
     13285     13284     13286     13284     13286     13287     13284     13286     13288
     13284     13286     13336     13287     13286     13288     13287     13286     13336
     13288     13286     13336     13277     13289     13290     13277     13289     13291
     13277     13289     13292     13290     13289     13291     13290     13289     13292
     13291     13289     13292     13289     13292     13293     13289     13292     13294
     13289     13292     13295     13293     13292     13294     13293     13292     13295
     13294     13292     13295     13292     13295     13296     13292     13295     13297
     13292     13295     13298     13296     13295     13297     13296     13295     13298
     13297     13295     13298     13295     13298     13299     13295     13298     13300
     13295     13298     13301     13299     13298     13300     13299     13298     13301
     13300     13298     13301     13298     13301     13302     13298     13301     13303
     13298     13301     13304     13302     13301     13303     13302     13301     13304
     13303     13301     13304     13301     13304     13305     13301     13304     13306
     13301     13304     13307     13305     13304     13306     13305     13304     13307
     13306     13304     13307     13304     13307     13308     13304     13307     13309
     13308     13307     13309     13307     13309     13310     13307     13309     13311
     13310     13309     13311     13309     13311     13312     13309     13311     13313
     13309     13311     13314     13312     13311     13313     13312     13311     13314
     13313     13311     13314     13311     13314     13315     13311     13314     13316
     13311     13314     13317     13315     13314     13316     13315     13314     13317
     13316     13314     13317     13314     13317     13318     13314     13317     13319
     13314     13317     13320     13318     13317     13319     13318     13317     13320
     13319     13317     13320     13317     13320     13321     13317     13320     13322
     13317     13320     13323     13321     13320     13322     13321     13320     13323
     13322     13320     13323     13320     13323     13324     13320     13323     13325
     13320     13323     13326     13324     13323     13325     13324     13323     13326
     13325     13323     13326     13323     13326     13327     13323     13326     13328
     13323     13326     13329     13327     13326     13328     13327     13326     13329
     13328     13326     13329     13326     13329     13330     13326     13329     13331
     13326     13329     13332     13330     13329     13331     13330     13329     13332
     13331     13329     13332     13329     13332     13333     13329     13332     13334
     13329     13332     13335     13333     13332     13334     13333     13332     13335
     13334     13332     13335     13286     13336     13337     13286     13336     13338
     13286     13336     13339     13337     13336     13338     13337     13336     13339
     13338     13336     13339     13336     13339     13340     13336     13339     13341
     13336     13339     13342     13340     13339     13341     13340     13339     13342
     13341     13339     13342     13339     13342     13343     13339     13342     13344
     13339     13342     13345     13343     13342     13344     13343     13342     13345
     13344     13342     13345     13342     13345     13346     13342     13345     13347
     13342     13345     13348     13346     13345     13347     13346     13345     13348
     13347     13345     13348     13345     13348     13349     13345     13348     13350
     13345     13348     13351     13349     13348     13350     13349     13348     13351
     13350     13348     13351     13348     13351     13352     13348     13351     13353
     13348     13351     13354     13352     13351     13353     13352     13351     13354
     13353     13351     13354     13351     13354     13355     13351     13354     13356
     13351     13354     13357     13355     13354     13356     13355     13354     13357
     13356     13354     13357     13354     13357     13358     13354     13357     13359
     13354     13357     13360     13358     13357     13359     13358     13357     13360
     13359     13357     13360     13357     13360     13361     13357     13360     13362
     13357     13360     13363     13361     13360     13362     13361     13360     13363
     13362     13360     13363     13360     13363     13364     13360     13363     13365
     13360     13363     13366     13364     13363     13365     13364     13363     13366
     13365     13363     13366     13363     13366     13367     13363     13366     13368
     13363     13366     13369     13367     13366     13368     13367     13366     13369
     13368     13366     13369     13366     13369     13370     13366     13369     13371
     13366     13369     13372     13370     13369     13371     13370     13369     13372
     13371     13369     13372     13369     13372     13373     13369     13372     13374
     13369     13372     13375     13373     13372     13374     13373     13372     13375
     13374     13372     13375     13372     13375     13376     13372     13375     13377
     13372     13375     13378     13376     13375     13377     13376     13375     13378
     13377     13375     13378     13380     13379     13383     13380     13379     13387
     13380     13379     13391     13383     13379     13387     13383     13379     13391
     13387     13379     13391     13379     13380     13381     13379     13380     13382
     13379     13380     13395     13381     13380     13382     13381     13380     13395
     13382     13380     13395     13379     13383     13384     13379     13383     13385
     13379     13383     13386     13384     13383     13385     13384     13383     13386
     13385     13383     13386     13379     13387     13388     13379     13387     13389
     13379     13387     13390     13388     13387     13389     13388     13387     13390
     13389     13387     13390     13379     13391     13392     13379     13391     13393
     13379     13391     13394     13392     13391     13393     13392     13391     13394
     13393     13391     13394     13380     13395     13396     13380     13395     13397
     13380     13395     13401     13396     13395     13397     13396     13395     13401
     13397     13395     13401     13399     13398     13400     13399     13398     13401
     13399     13398     13402     13400     13398     13401     13400     13398     13402
     13401     13398     13402     13395     13401     13398     13398     13402     13403
     13402     13403     13404     13402     13403     13405     13402     13403     13406
     13404     13403     13405     13404     13403     13406     13405     13403     13406
     13403     13406     13407     13403     13406     13408     13403     13406     13414
     13407     13406     13408     13407     13406     13414     13408     13406     13414
     13406     13408     13409     13408     13409     13410     13408     13409     13411
     13410     13409     13411     13409     13411     13412     13409     13411     13413
     13409     13411     13423     13412     13411     13413     13412     13411     13423
     13413     13411     13423     13406     13414     13415     13406     13414     13416
     13406     13414     13417     13415     13414     13416     13415     13414     13417
     13416     13414     13417     13414     13417     13418     13417     13418     13419
     13417     13418     13420     13419     13418     13420     13418     13420     13421
     13418     13420     13422     13418     13420     13470     13421     13420     13422
     13421     13420     13470     13422     13420     13470     13411     13423     13424
     13411     13423     13425     13411     13423     13426     13424     13423     13425
     13424     13423     13426     13425     13423     13426     13423     13426     13427
     13423     13426     13428     13423     13426     13429     13427     13426     13428
     13427     13426     13429     13428     13426     13429     13426     13429     13430
     13426     13429     13431     13426     13429     13432     13430     13429     13431
     13430     13429     13432     13431     13429     13432     13429     13432     13433
     13429     13432     13434     13429     13432     13435     13433     13432     13434
     13433     13432     13435     13434     13432     13435     13432     13435     13436
     13432     13435     13437     13432     13435     13438     13436     13435     13437
     13436     13435     13438     13437     13435     13438     13435     13438     13439
     13435     13438     13440     13435     13438     13441     13439     13438     13440
     13439     13438     13441     13440     13438     13441     13438     13441     13442
     13438     13441     13443     13442     13441     13443     13441     13443     13444
     13441     13443     13445     13444     13443     13445     13443     13445     13446
     13443     13445     13447     13443     13445     13448     13446     13445     13447
     13446     13445     13448     13447     13445     13448     13445     13448     13449
     13445     13448     13450     13445     13448     13451     13449     13448     13450
     13449     13448     13451     13450     13448     13451     13448     13451     13452
     13448     13451     13453     13448     13451     13454     13452     13451     13453
     13452     13451     13454     13453     13451     13454     13451     13454     13455
     13451     13454     13456     13451     13454     13457     13455     13454     13456
     13455     13454     13457     13456     13454     13457     13454     13457     13458
     13454     13457     13459     13454     13457     13460     13458     13457     13459
     13458     13457     13460     13459     13457     13460     13457     13460     13461
     13457     13460     13462     13457     13460     13463     13461     13460     13462
     13461     13460     13463     13462     13460     13463     13460     13463     13464
     13460     13463     13465     13460     13463     13466     13464     13463     13465
     13464     13463     13466     13465     13463     13466     13463     13466     13467
     13463     13466     13468     13463     13466     13469     13467     13466     13468
     13467     13466     13469     13468     13466     13469     13420     13470     13471
     13420     13470     13472     13420     13470     13473     13471     13470     13472
     13471     13470     13473     13472     13470     13473     13470     13473     13474
     13470     13473     13475     13470     13473     13476     13474     13473     13475
     13474     13473     13476     13475     13473     13476     13473     13476     13477
     13473     13476     13478     13473     13476     13479     13477     13476     13478
     13477     13476     13479     13478     13476     13479     13476     13479     13480
     13476     13479     13481     13476     13479     13482     13480     13479     13481
     13480     13479     13482     13481     13479     13482     13479     13482     13483
     13479     13482     13484     13479     13482     13485     13483     13482     13484
     13483     13482     13485     13484     13482     13485     13482     13485     13486
     13482     13485     13487     13482     13485     13488     13486     13485     13487
     13486     13485     13488     13487     13485     13488     13485     13488     13489
     13485     13488     13490     13485     13488     13491     13489     13488     13490
     13489     13488     13491     13490     13488     13491     13488     13491     13492
     13488     13491     13493     13488     13491     13494     13492     13491     13493
     13492     13491     13494     13493     13491     13494     13491     13494     13495
     13491     13494     13496     13491     13494     13497     13495     13494     13496
     13495     13494     13497     13496     13494     13497     13494     13497     13498
     13494     13497     13499     13494     13497     13500     13498     13497     13499
     13498     13497     13500     13499     13497     13500     13497     13500     13501
     13497     13500     13502     13497     13500     13503     13501     13500     13502
     13501     13500     13503     13502     13500     13503     13500     13503     13504
     13500     13503     13505     13500     13503     13506     13504     13503     13505
     13504     13503     13506     13505     13503     13506     13503     13506     13507
     13503     13506     13508     13503     13506     13509     13507     13506     13508
     13507     13506     13509     13508     13506     13509     13506     13509     13510
     13506     13509     13511     13506     13509     13512     13510     13509     13511
     13510     13509     13512     13511     13509     13512     13514     13513     13517
     13514     13513     13521     13514     13513     13525     13517     13513     13521
     13517     13513     13525     13521     13513     13525     13513     13514     13515
     13513     13514     13516     13513     13514     13529     13515     13514     13516
     13515     13514     13529     13516     13514     13529     13513     13517     13518
     13513     13517     13519     13513     13517     13520     13518     13517     13519
     13518     13517     13520     13519     13517     13520     13513     13521     13522
     13513     13521     13523     13513     13521     13524     13522     13521     13523
     13522     13521     13524     13523     13521     13524     13513     13525     13526
     13513     13525     13527     13513     13525     13528     13526     13525     13527
     13526     13525     13528     13527     13525     13528     13514     13529     13530
     13514     13529     13531     13514     13529     13535     13530     13529     13531
     13530     13529     13535     13531     13529     13535     13533     13532     13534
     13533     13532     13535     13533     13532     13536     13534     13532     13535
     13534     13532     13536     13535     13532     13536     13529     13535     13532
     13532     13536     13537     13536     13537     13538     13536     13537     13539
     13536     13537     13540     13538     13537     13539     13538     13537     13540
     13539     13537     13540     13537     13540     13541     13537     13540     13542
     13537     13540     13548     13541     13540     13542     13541     13540     13548
     13542     13540     13548     13540     13542     13543     13542     13543     13544
     13542     13543     13545     13544     13543     13545     13543     13545     13546
     13543     13545     13547     13543     13545     13557     13546     13545     13547
     13546     13545     13557     13547     13545     13557     13540     13548     13549
     13540     13548     13550     13540     13548     13551     13549     13548     13550
     13549     13548     13551     13550     13548     13551     13548     13551     13552
     13551     13552     13553     13551     13552     13554     13553     13552     13554
     13552     13554     13555     13552     13554     13556     13552     13554     13604
     13555     13554     13556     13555     13554     13604     13556     13554     13604
     13545     13557     13558     13545     13557     13559     13545     13557     13560
     13558     13557     13559     13558     13557     13560     13559     13557     13560
     13557     13560     13561     13557     13560     13562     13557     13560     13563
     13561     13560     13562     13561     13560     13563     13562     13560     13563
     13560     13563     13564     13560     13563     13565     13560     13563     13566
     13564     13563     13565     13564     13563     13566     13565     13563     13566
     13563     13566     13567     13563     13566     13568     13563     13566     13569
     13567     13566     13568     13567     13566     13569     13568     13566     13569
     13566     13569     13570     13566     13569     13571     13566     13569     13572
     13570     13569     13571     13570     13569     13572     13571     13569     13572
     13569     13572     13573     13569     13572     13574     13569     13572     13575
     13573     13572     13574     13573     13572     13575     13574     13572     13575
     13572     13575     13576     13572     13575     13577     13576     13575     13577
     13575     13577     13578     13575     13577     13579     13578     13577     13579
     13577     13579     13580     13577     13579     13581     13577     13579     13582
     13580     13579     13581     13580     13579     13582     13581     13579     13582
     13579     13582     13583     13579     13582     13584     13579     13582     13585
     13583     13582     13584     13583     13582     13585     13584     13582     13585
     13582     13585     13586     13582     13585     13587     13582     13585     13588
     13586     13585     13587     13586     13585     13588     13587     13585     13588
     13585     13588     13589     13585     13588     13590     13585     13588     13591
     13589     13588     13590     13589     13588     13591     13590     13588     13591
     13588     13591     13592     13588     13591     13593     13588     13591     13594
     13592     13591     13593     13592     13591     13594     13593     13591     13594
     13591     13594     13595     13591     13594     13596     13591     13594     13597
     13595     13594     13596     13595     13594     13597     13596     13594     13597
     13594     13597     13598     13594     13597     13599     13594     13597     13600
     13598     13597     13599     13598     13597     13600     13599     13597     13600
     13597     13600     13601     13597     13600     13602     13597     13600     13603
     13601     13600     13602     13601     13600     13603     13602     13600     13603
     13554     13604     13605     13554     13604     13606     13554     13604     13607
     13605     13604     13606     13605     13604     13607     13606     13604     13607
     13604     13607     13608     13604     13607     13609     13604     13607     13610
     13608     13607     13609     13608     13607     13610     13609     13607     13610
     13607     13610     13611     13607     13610     13612     13607     13610     13613
     13611     13610     13612     13611     13610     13613     13612     13610     13613
     13610     13613     13614     13610     13613     13615     13610     13613     13616
     13614     13613     13615     13614     13613     13616     13615     13613     13616
     13613     13616     13617     13613     13616     13618     13613     13616     13619
     13617     13616     13618     13617     13616     13619     13618     13616     13619
     13616     13619     13620     13616     13619     13621     13616     13619     13622
     13620     13619     13621     13620     13619     13622     13621     13619     13622
     13619     13622     13623     13619     13622     13624     13619     13622     13625
     13623     13622     13624     13623     13622     13625     13624     13622     13625
     13622     13625     13626     13622     13625     13627     13622     13625     13628
     13626     13625     13627     13626     13625     13628     13627     13625     13628
     13625     13628     13629     13625     13628     13630     13625     13628     13631
     13629     13628     13630     13629     13628     13631     13630     13628     13631
     13628     13631     13632     13628     13631     13633     13628     13631     13634
     13632     13631     13633     13632     13631     13634     13633     13631     13634
     13631     13634     13635     13631     13634     13636     13631     13634     13637
     13635     13634     13636     13635     13634     13637     13636     13634     13637
     13634     13637     13638     13634     13637     13639     13634     13637     13640
     13638     13637     13639     13638     13637     13640     13639     13637     13640
     13637     13640     13641     13637     13640     13642     13637     13640     13643
     13641     13640     13642     13641     13640     13643     13642     13640     13643
     13640     13643     13644     13640     13643     13645     13640     13643     13646
     13644     13643     13645     13644     13643     13646     13645     13643     13646
     13648     13647     13649     13648     13647     13650     13648     13647     13651
     13649     13647     13650     13649     13647     13651     13650     13647     13651
     13647     13651     13652     13647     13651     13653     13647     13651     13656
     13652     13651     13653     13652     13651     13656     13653     13651     13656
     13651     13653     13654     13651     13653     13655     13654     13653     13655
     13651     13656     13657     13651     13656     13658     13651     13656     13662
     13657     13656     13658     13657     13656     13662     13658     13656     13662
     13660     13659     13661     13660     13659     13662     13660     13659     13663
     13661     13659     13662     13661     13659     13663     13662     13659     13663
     13656     13662     13659     13659     13663     13664     13663     13664     13665
     13663     13664     13666     13663     13664     13667     13665     13664     13666
     13665     13664     13667     13666     13664     13667     13664     13667     13668
     13664     13667     13669     13664     13667     13675     13668     13667     13669
     13668     13667     13675     13669     13667     13675     13667     13669     13670
     13669     13670     13671     13669     13670     13672     13671     13670     13672
     13670     13672     13673     13670     13672     13674     13670     13672     13684
     13673     13672     13674     13673     13672     13684     13674     13672     13684
     13667     13675     13676     13667     13675     13677     13667     13675     13678
     13676     13675     13677     13676     13675     13678     13677     13675     13678
     13675     13678     13679     13678     13679     13680     13678     13679     13681
     13680     13679     13681     13679     13681     13682     13679     13681     13683
     13679     13681     13731     13682     13681     13683     13682     13681     13731
     13683     13681     13731     13672     13684     13685     13672     13684     13686
     13672     13684     13687     13685     13684     13686     13685     13684     13687
     13686     13684     13687     13684     13687     13688     13684     13687     13689
     13684     13687     13690     13688     13687     13689     13688     13687     13690
     13689     13687     13690     13687     13690     13691     13687     13690     13692
     13687     13690     13693     13691     13690     13692     13691     13690     13693
     13692     13690     13693     13690     13693     13694     13690     13693     13695
     13690     13693     13696     13694     13693     13695     13694     13693     13696
     13695     13693     13696     13693     13696     13697     13693     13696     13698
     13693     13696     13699     13697     13696     13698     13697     13696     13699
     13698     13696     13699     13696     13699     13700     13696     13699     13701
     13696     13699     13702     13700     13699     13701     13700     13699     13702
     13701     13699     13702     13699     13702     13703     13699     13702     13704
     13703     13702     13704     13702     13704     13705     13702     13704     13706
     13705     13704     13706     13704     13706     13707     13704     13706     13708
     13704     13706     13709     13707     13706     13708     13707     13706     13709
     13708     13706     13709     13706     13709     13710     13706     13709     13711
     13706     13709     13712     13710     13709     13711     13710     13709     13712
     13711     13709     13712     13709     13712     13713     13709     13712     13714
     13709     13712     13715     13713     13712     13714     13713     13712     13715
     13714     13712     13715     13712     13715     13716     13712     13715     13717
     13712     13715     13718     13716     13715     13717     13716     13715     13718
     13717     13715     13718     13715     13718     13719     13715     13718     13720
     13715     13718     13721     13719     13718     13720     13719     13718     13721
     13720     13718     13721     13718     13721     13722     13718     13721     13723
     13718     13721     13724     13722     13721     13723     13722     13721     13724
     13723     13721     13724     13721     13724     13725     13721     13724     13726
     13721     13724     13727     13725     13724     13726     13725     13724     13727
     13726     13724     13727     13724     13727     13728     13724     13727     13729
     13724     13727     13730     13728     13727     13729     13728     13727     13730
     13729     13727     13730     13681     13731     13732     13681     13731     13733
     13681     13731     13734     13732     13731     13733     13732     13731     13734
     13733     13731     13734     13731     13734     13735     13731     13734     13736
     13731     13734     13737     13735     13734     13736     13735     13734     13737
     13736     13734     13737     13734     13737     13738     13734     13737     13739
     13734     13737     13740     13738     13737     13739     13738     13737     13740
     13739     13737     13740     13737     13740     13741     13737     13740     13742
     13737     13740     13743     13741     13740     13742     13741     13740     13743
     13742     13740     13743     13740     13743     13744     13740     13743     13745
     13740     13743     13746     13744     13743     13745     13744     13743     13746
     13745     13743     13746     13743     13746     13747     13743     13746     13748
     13743     13746     13749     13747     13746     13748     13747     13746     13749
     13748     13746     13749     13746     13749     13750     13746     13749     13751
     13746     13749     13752     13750     13749     13751     13750     13749     13752
     13751     13749     13752     13749     13752     13753     13749     13752     13754
     13749     13752     13755     13753     13752     13754     13753     13752     13755
     13754     13752     13755     13752     13755     13756     13752     13755     13757
     13752     13755     13758     13756     13755     13757     13756     13755     13758
     13757     13755     13758     13755     13758     13759     13755     13758     13760
     13755     13758     13761     13759     13758     13760     13759     13758     13761
     13760     13758     13761     13758     13761     13762     13758     13761     13763
     13758     13761     13764     13762     13761     13763     13762     13761     13764
     13763     13761     13764     13761     13764     13765     13761     13764     13766
     13761     13764     13767     13765     13764     13766     13765     13764     13767
     13766     13764     13767     13764     13767     13768     13764     13767     13769
     13764     13767     13770     13768     13767     13769     13768     13767     13770
     13769     13767     13770     13767     13770     13771     13767     13770     13772
     13767     13770     13773     13771     13770     13772     13771     13770     13773
     13772     13770     13773     13775     13774     13778     13775     13774     13782
     13775     13774     13786     13778     13774     13782     13778     13774     13786
     13782     13774     13786     13774     13775     13776     13774     13775     13777
     13774     13775     13790     13776     13775     13777     13776     13775     13790
     13777     13775     13790     13774     13778     13779     13774     13778     13780
     13774     13778     13781     13779     13778     13780     13779     13778     13781
     13780     13778     13781     13774     13782     13783     13774     13782     13784
     13774     13782     13785     13783     13782     13784     13783     13782     13785
     13784     13782     13785     13774     13786     13787     13774     13786     13788
     13774     13786     13789     13787     13786     13788     13787     13786     13789
     13788     13786     13789     13775     13790     13791     13775     13790     13792
     13775     13790     13796     13791     13790     13792     13791     13790     13796
     13792     13790     13796     13794     13793     13795     13794     13793     13796
     13794     13793     13797     13795     13793     13796     13795     13793     13797
     13796     13793     13797     13790     13796     13793     13793     13797     13798
     13797     13798     13799     13797     13798     13800     13797     13798     13801
     13799     13798     13800     13799     13798     13801     13800     13798     13801
     13798     13801     13802     13798     13801     13803     13798     13801     13809
     13802     13801     13803     13802     13801     13809     13803     13801     13809
     13801     13803     13804     13803     13804     13805     13803     13804     13806
     13805     13804     13806     13804     13806     13807     13804     13806     13808
     13804     13806     13818     13807     13806     13808     13807     13806     13818
     13808     13806     13818     13801     13809     13810     13801     13809     13811
     13801     13809     13812     13810     13809     13811     13810     13809     13812
     13811     13809     13812     13809     13812     13813     13812     13813     13814
     13812     13813     13815     13814     13813     13815     13813     13815     13816
     13813     13815     13817     13813     13815     13865     13816     13815     13817
     13816     13815     13865     13817     13815     13865     13806     13818     13819
     13806     13818     13820     13806     13818     13821     13819     13818     13820
     13819     13818     13821     13820     13818     13821     13818     13821     13822
     13818     13821     13823     13818     13821     13824     13822     13821     13823
     13822     13821     13824     13823     13821     13824     13821     13824     13825
     13821     13824     13826     13821     13824     13827     13825     13824     13826
     13825     13824     13827     13826     13824     13827     13824     13827     13828
     13824     13827     13829     13824     13827     13830     13828     13827     13829
     13828     13827     13830     13829     13827     13830     13827     13830     13831
     13827     13830     13832     13827     13830     13833     13831     13830     13832
     13831     13830     13833     13832     13830     13833     13830     13833     13834
     13830     13833     13835     13830     13833     13836     13834     13833     13835
     13834     13833     13836     13835     13833     13836     13833     13836     13837
     13833     13836     13838     13837     13836     13838     13836     13838     13839
     13836     13838     13840     13839     13838     13840     13838     13840     13841
     13838     13840     13842     13838     13840     13843     13841     13840     13842
     13841     13840     13843     13842     13840     13843     13840     13843     13844
     13840     13843     13845     13840     13843     13846     13844     13843     13845
     13844     13843     13846     13845     13843     13846     13843     13846     13847
     13843     13846     13848     13843     13846     13849     13847     13846     13848
     13847     13846     13849     13848     13846     13849     13846     13849     13850
     13846     13849     13851     13846     13849     13852     13850     13849     13851
     13850     13849     13852     13851     13849     13852     13849     13852     13853
     13849     13852     13854     13849     13852     13855     13853     13852     13854
     13853     13852     13855     13854     13852     13855     13852     13855     13856
     13852     13855     13857     13852     13855     13858     13856     13855     13857
     13856     13855     13858     13857     13855     13858     13855     13858     13859
     13855     13858     13860     13855     13858     13861     13859     13858     13860
     13859     13858     13861     13860     13858     13861     13858     13861     13862
     13858     13861     13863     13858     13861     13864     13862     13861     13863
     13862     13861     13864     13863     13861     13864     13815     13865     13866
     13815     13865     13867     13815     13865     13868     13866     13865     13867
     13866     13865     13868     13867     13865     13868     13865     13868     13869
     13865     13868     13870     13865     13868     13871     13869     13868     13870
     13869     13868     13871     13870     13868     13871     13868     13871     13872
     13868     13871     13873     13868     13871     13874     13872     13871     13873
     13872     13871     13874     13873     13871     13874     13871     13874     13875
     13871     13874     13876     13871     13874     13877     13875     13874     13876
     13875     13874     13877     13876     13874     13877     13874     13877     13878
     13874     13877     13879     13874     13877     13880     13878     13877     13879
     13878     13877     13880     13879     13877     13880     13877     13880     13881
     13877     13880     13882     13877     13880     13883     13881     13880     13882
     13881     13880     13883     13882     13880     13883     13880     13883     13884
     13880     13883     13885     13880     13883     13886     13884     13883     13885
     13884     13883     13886     13885     13883     13886     13883     13886     13887
     13883     13886     13888     13883     13886     13889     13887     13886     13888
     13887     13886     13889     13888     13886     13889     13886     13889     13890
     13886     13889     13891     13886     13889     13892     13890     13889     13891
     13890     13889     13892     13891     13889     13892     13889     13892     13893
     13889     13892     13894     13889     13892     13895     13893     13892     13894
     13893     13892     13895     13894     13892     13895     13892     13895     13896
     13892     13895     13897     13892     13895     13898     13896     13895     13897
     13896     13895     13898     13897     13895     13898     13895     13898     13899
     13895     13898     13900     13895     13898     13901     13899     13898     13900
     13899     13898     13901     13900     13898     13901     13898     13901     13902
     13898     13901     13903     13898     13901     13904     13902     13901     13903
     13902     13901     13904     13903     13901     13904     13901     13904     13905
     13901     13904     13906     13901     13904     13907     13905     13904     13906
     13905     13904     13907     13906     13904     13907     13909     13908     13912
     13909     13908     13916     13909     13908     13920     13912     13908     13916
     13912     13908     13920     13916     13908     13920     13908     13909     13910
     13908     13909     13911     13908     13909     13924     13910     13909     13911
     13910     13909     13924     13911     13909     13924     13908     13912     13913
     13908     13912     13914     13908     13912     13915     13913     13912     13914
     13913     13912     13915     13914     13912     13915     13908     13916     13917
     13908     13916     13918     13908     13916     13919     13917     13916     13918
     13917     13916     13919     13918     13916     13919     13908     13920     13921
     13908     13920     13922     13908     13920     13923     13921     13920     13922
     13921     13920     13923     13922     13920     13923     13909     13924     13925
     13909     13924     13926     13909     13924     13930     13925     13924     13926
     13925     13924     13930     13926     13924     13930     13928     13927     13929
     13928     13927     13930     13928     13927     13931     13929     13927     13930
     13929     13927     13931     13930     13927     13931     13924     13930     13927
     13927     13931     13932     13931     13932     13933     13931     13932     13934
     13931     13932     13935     13933     13932     13934     13933     13932     13935
     13934     13932     13935     13932     13935     13936     13932     13935     13937
     13932     13935     13943     13936     13935     13937     13936     13935     13943
     13937     13935     13943     13935     13937     13938     13937     13938     13939
     13937     13938     13940     13939     13938     13940     13938     13940     13941
     13938     13940     13942     13938     13940     13952     13941     13940     13942
     13941     13940     13952     13942     13940     13952     13935     13943     13944
     13935     13943     13945     13935     13943     13946     13944     13943     13945
     13944     13943     13946     13945     13943     13946     13943     13946     13947
     13946     13947     13948     13946     13947     13949     13948     13947     13949
     13947     13949     13950     13947     13949     13951     13947     13949     13999
     13950     13949     13951     13950     13949     13999     13951     13949     13999
     13940     13952     13953     13940     13952     13954     13940     13952     13955
     13953     13952     13954     13953     13952     13955     13954     13952     13955
     13952     13955     13956     13952     13955     13957     13952     13955     13958
     13956     13955     13957     13956     13955     13958     13957     13955     13958
     13955     13958     13959     13955     13958     13960     13955     13958     13961
     13959     13958     13960     13959     13958     13961     13960     13958     13961
     13958     13961     13962     13958     13961     13963     13958     13961     13964
     13962     13961     13963     13962     13961     13964     13963     13961     13964
     13961     13964     13965     13961     13964     13966     13961     13964     13967
     13965     13964     13966     13965     13964     13967     13966     13964     13967
     13964     13967     13968     13964     13967     13969     13964     13967     13970
     13968     13967     13969     13968     13967     13970     13969     13967     13970
     13967     13970     13971     13967     13970     13972     13971     13970     13972
     13970     13972     13973     13970     13972     13974     13973     13972     13974
     13972     13974     13975     13972     13974     13976     13972     13974     13977
     13975     13974     13976     13975     13974     13977     13976     13974     13977
     13974     13977     13978     13974     13977     13979     13974     13977     13980
     13978     13977     13979     13978     13977     13980     13979     13977     13980
     13977     13980     13981     13977     13980     13982     13977     13980     13983
     13981     13980     13982     13981     13980     13983     13982     13980     13983
     13980     13983     13984     13980     13983     13985     13980     13983     13986
     13984     13983     13985     13984     13983     13986     13985     13983     13986
     13983     13986     13987     13983     13986     13988     13983     13986     13989
     13987     13986     13988     13987     13986     13989     13988     13986     13989
     13986     13989     13990     13986     13989     13991     13986     13989     13992
     13990     13989     13991     13990     13989     13992     13991     13989     13992
     13989     13992     13993     13989     13992     13994     13989     13992     13995
     13993     13992     13994     13993     13992     13995     13994     13992     13995
     13992     13995     13996     13992     13995     13997     13992     13995     13998
     13996     13995     13997     13996     13995     13998     13997     13995     13998
     13949     13999     14000     13949     13999     14001     13949     13999     14002
     14000     13999     14001     14000     13999     14002     14001     13999     14002
     13999     14002     14003     13999     14002     14004     13999     14002     14005
     14003     14002     14004     14003     14002     14005     14004     14002     14005
     14002     14005     14006     14002     14005     14007     14002     14005     14008
     14006     14005     14007     14006     14005     14008     14007     14005     14008
     14005     14008     14009     14005     14008     14010     14005     14008     14011
     14009     14008     14010     14009     14008     14011     14010     14008     14011
     14008     14011     14012     14008     14011     14013     14008     14011     14014
     14012     14011     14013     14012     14011     14014     14013     14011     14014
     14011     14014     14015     14011     14014     14016     14011     14014     14017
     14015     14014     14016     14015     14014     14017     14016     14014     14017
     14014     14017     14018     14014     14017     14019     14014     14017     14020
     14018     14017     14019     14018     14017     14020     14019     14017     14020
     14017     14020     14021     14017     14020     14022     14017     14020     14023
     14021     14020     14022     14021     14020     14023     14022     14020     14023
     14020     14023     14024     14020     14023     14025     14020     14023     14026
     14024     14023     14025     14024     14023     14026     14025     14023     14026
     14023     14026     14027     14023     14026     14028     14023     14026     14029
     14027     14026     14028     14027     14026     14029     14028     14026     14029
     14026     14029     14030     14026     14029     14031     14026     14029     14032
     14030     14029     14031     14030     14029     14032     14031     14029     14032
     14029     14032     14033     14029     14032     14034     14029     14032     14035
     14033     14032     14034     14033     14032     14035     14034     14032     14035
     14032     14035     14036     14032     14035     14037     14032     14035     14038
     14036     14035     14037     14036     14035     14038     14037     14035     14038
     14035     14038     14039     14035     14038     14040     14035     14038     14041
     14039     14038     14040     14039     14038     14041     14040     14038     14041
     14043     14042     14044     14043     14042     14045     14043     14042     14046
     14044     14042     14045     14044     14042     14046     14045     14042     14046
     14042     14046     14047     14042     14046     14048     14042     14046     14051
     14047     14046     14048     14047     14046     14051     14048     14046     14051
     14046     14048     14049     14046     14048     14050     14049     14048     14050
     14046     14051     14052     14046     14051     14053     14046     14051     14057
     14052     14051     14053     14052     14051     14057     14053     14051     14057
     14055     14054     14056     14055     14054     14057     14055     14054     14058
     14056     14054     14057     14056     14054     14058     14057     14054     14058
     14051     14057     14054     14054     14058     14059     14058     14059     14060
     14058     14059     14061     14058     14059     14062     14060     14059     14061
     14060     14059     14062     14061     14059     14062     14059     14062     14063
     14059     14062     14064     14059     14062     14070     14063     14062     14064
     14063     14062     14070     14064     14062     14070     14062     14064     14065
     14064     14065     14066     14064     14065     14067     14066     14065     14067
     14065     14067     14068     14065     14067     14069     14065     14067     14079
     14068     14067     14069     14068     14067     14079     14069     14067     14079
     14062     14070     14071     14062     14070     14072     14062     14070     14073
     14071     14070     14072     14071     14070     14073     14072     14070     14073
     14070     14073     14074     14073     14074     14075     14073     14074     14076
     14075     14074     14076     14074     14076     14077     14074     14076     14078
     14074     14076     14126     14077     14076     14078     14077     14076     14126
     14078     14076     14126     14067     14079     14080     14067     14079     14081
     14067     14079     14082     14080     14079     14081     14080     14079     14082
     14081     14079     14082     14079     14082     14083     14079     14082     14084
     14079     14082     14085     14083     14082     14084     14083     14082     14085
     14084     14082     14085     14082     14085     14086     14082     14085     14087
     14082     14085     14088     14086     14085     14087     14086     14085     14088
     14087     14085     14088     14085     14088     14089     14085     14088     14090
     14085     14088     14091     14089     14088     14090     14089     14088     14091
     14090     14088     14091     14088     14091     14092     14088     14091     14093
     14088     14091     14094     14092     14091     14093     14092     14091     14094
     14093     14091     14094     14091     14094     14095     14091     14094     14096
     14091     14094     14097     14095     14094     14096     14095     14094     14097
     14096     14094     14097     14094     14097     14098     14094     14097     14099
     14098     14097     14099     14097     14099     14100     14097     14099     14101
     14100     14099     14101     14099     14101     14102     14099     14101     14103
     14099     14101     14104     14102     14101     14103     14102     14101     14104
     14103     14101     14104     14101     14104     14105     14101     14104     14106
     14101     14104     14107     14105     14104     14106     14105     14104     14107
     14106     14104     14107     14104     14107     14108     14104     14107     14109
     14104     14107     14110     14108     14107     14109     14108     14107     14110
     14109     14107     14110     14107     14110     14111     14107     14110     14112
     14107     14110     14113     14111     14110     14112     14111     14110     14113
     14112     14110     14113     14110     14113     14114     14110     14113     14115
     14110     14113     14116     14114     14113     14115     14114     14113     14116
     14115     14113     14116     14113     14116     14117     14113     14116     14118
     14113     14116     14119     14117     14116     14118     14117     14116     14119
     14118     14116     14119     14116     14119     14120     14116     14119     14121
     14116     14119     14122     14120     14119     14121     14120     14119     14122
     14121     14119     14122     14119     14122     14123     14119     14122     14124
     14119     14122     14125     14123     14122     14124     14123     14122     14125
     14124     14122     14125     14076     14126     14127     14076     14126     14128
     14076     14126     14129     14127     14126     14128     14127     14126     14129
     14128     14126     14129     14126     14129     14130     14126     14129     14131
     14126     14129     14132     14130     14129     14131     14130     14129     14132
     14131     14129     14132     14129     14132     14133     14129     14132     14134
     14129     14132     14135     14133     14132     14134     14133     14132     14135
     14134     14132     14135     14132     14135     14136     14132     14135     14137
     14132     14135     14138     14136     14135     14137     14136     14135     14138
     14137     14135     14138     14135     14138     14139     14135     14138     14140
     14135     14138     14141     14139     14138     14140     14139     14138     14141
     14140     14138     14141     14138     14141     14142     14138     14141     14143
     14138     14141     14144     14142     14141     14143     14142     14141     14144
     14143     14141     14144     14141     14144     14145     14141     14144     14146
     14141     14144     14147     14145     14144     14146     14145     14144     14147
     14146     14144     14147     14144     14147     14148     14144     14147     14149
     14144     14147     14150     14148     14147     14149     14148     14147     14150
     14149     14147     14150     14147     14150     14151     14147     14150     14152
     14147     14150     14153     14151     14150     14152     14151     14150     14153
     14152     14150     14153     14150     14153     14154     14150     14153     14155
     14150     14153     14156     14154     14153     14155     14154     14153     14156
     14155     14153     14156     14153     14156     14157     14153     14156     14158
     14153     14156     14159     14157     14156     14158     14157     14156     14159
     14158     14156     14159     14156     14159     14160     14156     14159     14161
     14156     14159     14162     14160     14159     14161     14160     14159     14162
     14161     14159     14162     14159     14162     14163     14159     14162     14164
     14159     14162     14165     14163     14162     14164     14163     14162     14165
     14164     14162     14165     14162     14165     14166     14162     14165     14167
     14162     14165     14168     14166     14165     14167     14166     14165     14168
     14167     14165     14168     14170     14169     14173     14170     14169     14177
     14170     14169     14181     14173     14169     14177     14173     14169     14181
     14177     14169     14181     14169     14170     14171     14169     14170     14172
     14169     14170     14185     14171     14170     14172     14171     14170     14185
     14172     14170     14185     14169     14173     14174     14169     14173     14175
     14169     14173     14176     14174     14173     14175     14174     14173     14176
     14175     14173     14176     14169     14177     14178     14169     14177     14179
     14169     14177     14180     14178     14177     14179     14178     14177     14180
     14179     14177     14180     14169     14181     14182     14169     14181     14183
     14169     14181     14184     14182     14181     14183     14182     14181     14184
     14183     14181     14184     14170     14185     14186     14170     14185     14187
     14170     14185     14191     14186     14185     14187     14186     14185     14191
     14187     14185     14191     14189     14188     14190     14189     14188     14191
     14189     14188     14192     14190     14188     14191     14190     14188     14192
     14191     14188     14192     14185     14191     14188     14188     14192     14193
     14192     14193     14194     14192     14193     14195     14192     14193     14196
     14194     14193     14195     14194     14193     14196     14195     14193     14196
     14193     14196     14197     14193     14196     14198     14193     14196     14204
     14197     14196     14198     14197     14196     14204     14198     14196     14204
     14196     14198     14199     14198     14199     14200     14198     14199     14201
     14200     14199     14201     14199     14201     14202     14199     14201     14203
     14199     14201     14213     14202     14201     14203     14202     14201     14213
     14203     14201     14213     14196     14204     14205     14196     14204     14206
     14196     14204     14207     14205     14204     14206     14205     14204     14207
     14206     14204     14207     14204     14207     14208     14207     14208     14209
     14207     14208     14210     14209     14208     14210     14208     14210     14211
     14208     14210     14212     14208     14210     14260     14211     14210     14212
     14211     14210     14260     14212     14210     14260     14201     14213     14214
     14201     14213     14215     14201     14213     14216     14214     14213     14215
     14214     14213     14216     14215     14213     14216     14213     14216     14217
     14213     14216     14218     14213     14216     14219     14217     14216     14218
     14217     14216     14219     14218     14216     14219     14216     14219     14220
     14216     14219     14221     14216     14219     14222     14220     14219     14221
     14220     14219     14222     14221     14219     14222     14219     14222     14223
     14219     14222     14224     14219     14222     14225     14223     14222     14224
     14223     14222     14225     14224     14222     14225     14222     14225     14226
     14222     14225     14227     14222     14225     14228     14226     14225     14227
     14226     14225     14228     14227     14225     14228     14225     14228     14229
     14225     14228     14230     14225     14228     14231     14229     14228     14230
     14229     14228     14231     14230     14228     14231     14228     14231     14232
     14228     14231     14233     14232     14231     14233     14231     14233     14234
     14231     14233     14235     14234     14233     14235     14233     14235     14236
     14233     14235     14237     14233     14235     14238     14236     14235     14237
     14236     14235     14238     14237     14235     14238     14235     14238     14239
     14235     14238     14240     14235     14238     14241     14239     14238     14240
     14239     14238     14241     14240     14238     14241     14238     14241     14242
     14238     14241     14243     14238     14241     14244     14242     14241     14243
     14242     14241     14244     14243     14241     14244     14241     14244     14245
     14241     14244     14246     14241     14244     14247     14245     14244     14246
     14245     14244     14247     14246     14244     14247     14244     14247     14248
     14244     14247     14249     14244     14247     14250     14248     14247     14249
     14248     14247     14250     14249     14247     14250     14247     14250     14251
     14247     14250     14252     14247     14250     14253     14251     14250     14252
     14251     14250     14253     14252     14250     14253     14250     14253     14254
     14250     14253     14255     14250     14253     14256     14254     14253     14255
     14254     14253     14256     14255     14253     14256     14253     14256     14257
     14253     14256     14258     14253     14256     14259     14257     14256     14258
     14257     14256     14259     14258     14256     14259     14210     14260     14261
     14210     14260     14262     14210     14260     14263     14261     14260     14262
     14261     14260     14263     14262     14260     14263     14260     14263     14264
     14260     14263     14265     14260     14263     14266     14264     14263     14265
     14264     14263     14266     14265     14263     14266     14263     14266     14267
     14263     14266     14268     14263     14266     14269     14267     14266     14268
     14267     14266     14269     14268     14266     14269     14266     14269     14270
     14266     14269     14271     14266     14269     14272     14270     14269     14271
     14270     14269     14272     14271     14269     14272     14269     14272     14273
     14269     14272     14274     14269     14272     14275     14273     14272     14274
     14273     14272     14275     14274     14272     14275     14272     14275     14276
     14272     14275     14277     14272     14275     14278     14276     14275     14277
     14276     14275     14278     14277     14275     14278     14275     14278     14279
     14275     14278     14280     14275     14278     14281     14279     14278     14280
     14279     14278     14281     14280     14278     14281     14278     14281     14282
     14278     14281     14283     14278     14281     14284     14282     14281     14283
     14282     14281     14284     14283     14281     14284     14281     14284     14285
     14281     14284     14286     14281     14284     14287     14285     14284     14286
     14285     14284     14287     14286     14284     14287     14284     14287     14288
     14284     14287     14289     14284     14287     14290     14288     14287     14289
     14288     14287     14290     14289     14287     14290     14287     14290     14291
     14287     14290     14292     14287     14290     14293     14291     14290     14292
     14291     14290     14293     14292     14290     14293     14290     14293     14294
     14290     14293     14295     14290     14293     14296     14294     14293     14295
     14294     14293     14296     14295     14293     14296     14293     14296     14297
     14293     14296     14298     14293     14296     14299     14297     14296     14298
     14297     14296     14299     14298     14296     14299     14296     14299     14300
     14296     14299     14301     14296     14299     14302     14300     14299     14301
     14300     14299     14302     14301     14299     14302     14304     14303     14307
     14304     14303     14311     14304     14303     14315     14307     14303     14311
     14307     14303     14315     14311     14303     14315     14303     14304     14305
     14303     14304     14306     14303     14304     14319     14305     14304     14306
     14305     14304     14319     14306     14304     14319     14303     14307     14308
     14303     14307     14309     14303     14307     14310     14308     14307     14309
     14308     14307     14310     14309     14307     14310     14303     14311     14312
     14303     14311     14313     14303     14311     14314     14312     14311     14313
     14312     14311     14314     14313     14311     14314     14303     14315     14316
     14303     14315     14317     14303     14315     14318     14316     14315     14317
     14316     14315     14318     14317     14315     14318     14304     14319     14320
     14304     14319     14321     14304     14319     14325     14320     14319     14321
     14320     14319     14325     14321     14319     14325     14323     14322     14324
     14323     14322     14325     14323     14322     14326     14324     14322     14325
     14324     14322     14326     14325     14322     14326     14319     14325     14322
     14322     14326     14327     14326     14327     14328     14326     14327     14329
     14326     14327     14330     14328     14327     14329     14328     14327     14330
     14329     14327     14330     14327     14330     14331     14327     14330     14332
     14327     14330     14338     14331     14330     14332     14331     14330     14338
     14332     14330     14338     14330     14332     14333     14332     14333     14334
     14332     14333     14335     14334     14333     14335     14333     14335     14336
     14333     14335     14337     14333     14335     14347     14336     14335     14337
     14336     14335     14347     14337     14335     14347     14330     14338     14339
     14330     14338     14340     14330     14338     14341     14339     14338     14340
     14339     14338     14341     14340     14338     14341     14338     14341     14342
     14341     14342     14343     14341     14342     14344     14343     14342     14344
     14342     14344     14345     14342     14344     14346     14342     14344     14394
     14345     14344     14346     14345     14344     14394     14346     14344     14394
     14335     14347     14348     14335     14347     14349     14335     14347     14350
     14348     14347     14349     14348     14347     14350     14349     14347     14350
     14347     14350     14351     14347     14350     14352     14347     14350     14353
     14351     14350     14352     14351     14350     14353     14352     14350     14353
     14350     14353     14354     14350     14353     14355     14350     14353     14356
     14354     14353     14355     14354     14353     14356     14355     14353     14356
     14353     14356     14357     14353     14356     14358     14353     14356     14359
     14357     14356     14358     14357     14356     14359     14358     14356     14359
     14356     14359     14360     14356     14359     14361     14356     14359     14362
     14360     14359     14361     14360     14359     14362     14361     14359     14362
     14359     14362     14363     14359     14362     14364     14359     14362     14365
     14363     14362     14364     14363     14362     14365     14364     14362     14365
     14362     14365     14366     14362     14365     14367     14366     14365     14367
     14365     14367     14368     14365     14367     14369     14368     14367     14369
     14367     14369     14370     14367     14369     14371     14367     14369     14372
     14370     14369     14371     14370     14369     14372     14371     14369     14372
     14369     14372     14373     14369     14372     14374     14369     14372     14375
     14373     14372     14374     14373     14372     14375     14374     14372     14375
     14372     14375     14376     14372     14375     14377     14372     14375     14378
     14376     14375     14377     14376     14375     14378     14377     14375     14378
     14375     14378     14379     14375     14378     14380     14375     14378     14381
     14379     14378     14380     14379     14378     14381     14380     14378     14381
     14378     14381     14382     14378     14381     14383     14378     14381     14384
     14382     14381     14383     14382     14381     14384     14383     14381     14384
     14381     14384     14385     14381     14384     14386     14381     14384     14387
     14385     14384     14386     14385     14384     14387     14386     14384     14387
     14384     14387     14388     14384     14387     14389     14384     14387     14390
     14388     14387     14389     14388     14387     14390     14389     14387     14390
     14387     14390     14391     14387     14390     14392     14387     14390     14393
     14391     14390     14392     14391     14390     14393     14392     14390     14393
     14344     14394     14395     14344     14394     14396     14344     14394     14397
     14395     14394     14396     14395     14394     14397     14396     14394     14397
     14394     14397     14398     14394     14397     14399     14394     14397     14400
     14398     14397     14399     14398     14397     14400     14399     14397     14400
     14397     14400     14401     14397     14400     14402     14397     14400     14403
     14401     14400     14402     14401     14400     14403     14402     14400     14403
     14400     14403     14404     14400     14403     14405     14400     14403     14406
     14404     14403     14405     14404     14403     14406     14405     14403     14406
     14403     14406     14407     14403     14406     14408     14403     14406     14409
     14407     14406     14408     14407     14406     14409     14408     14406     14409
     14406     14409     14410     14406     14409     14411     14406     14409     14412
     14410     14409     14411     14410     14409     14412     14411     14409     14412
     14409     14412     14413     14409     14412     14414     14409     14412     14415
     14413     14412     14414     14413     14412     14415     14414     14412     14415
     14412     14415     14416     14412     14415     14417     14412     14415     14418
     14416     14415     14417     14416     14415     14418     14417     14415     14418
     14415     14418     14419     14415     14418     14420     14415     14418     14421
     14419     14418     14420     14419     14418     14421     14420     14418     14421
     14418     14421     14422     14418     14421     14423     14418     14421     14424
     14422     14421     14423     14422     14421     14424     14423     14421     14424
     14421     14424     14425     14421     14424     14426     14421     14424     14427
     14425     14424     14426     14425     14424     14427     14426     14424     14427
     14424     14427     14428     14424     14427     14429     14424     14427     14430
     14428     14427     14429     14428     14427     14430     14429     14427     14430
     14427     14430     14431     14427     14430     14432     14427     14430     14433
     14431     14430     14432     14431     14430     14433     14432     14430     14433
     14430     14433     14434     14430     14433     14435     14430     14433     14436
     14434     14433     14435     14434     14433     14436     14435     14433     14436
     14438     14437     14441     14438     14437     14445     14438     14437     14449
     14441     14437     14445     14441     14437     14449     14445     14437     14449
     14437     14438     14439     14437     14438     14440     14437     14438     14453
     14439     14438     14440     14439     14438     14453     14440     14438     14453
     14437     14441     14442     14437     14441     14443     14437     14441     14444
     14442     14441     14443     14442     14441     14444     14443     14441     14444
     14437     14445     14446     14437     14445     14447     14437     14445     14448
     14446     14445     14447     14446     14445     14448     14447     14445     14448
     14437     14449     14450     14437     14449     14451     14437     14449     14452
     14450     14449     14451     14450     14449     14452     14451     14449     14452
     14438     14453     14454     14438     14453     14455     14438     14453     14459
     14454     14453     14455     14454     14453     14459     14455     14453     14459
     14457     14456     14458     14457     14456     14459     14457     14456     14460
     14458     14456     14459     14458     14456     14460     14459     14456     14460
     14453     14459     14456     14456     14460     14461     14460     14461     14462
     14460     14461     14463     14460     14461     14464     14462     14461     14463
     14462     14461     14464     14463     14461     14464     14461     14464     14465
     14461     14464     14466     14461     14464     14472     14465     14464     14466
     14465     14464     14472     14466     14464     14472     14464     14466     14467
     14466     14467     14468     14466     14467     14469     14468     14467     14469
     14467     14469     14470     14467     14469     14471     14467     14469     14481
     14470     14469     14471     14470     14469     14481     14471     14469     14481
     14464     14472     14473     14464     14472     14474     14464     14472     14475
     14473     14472     14474     14473     14472     14475     14474     14472     14475
     14472     14475     14476     14475     14476     14477     14475     14476     14478
     14477     14476     14478     14476     14478     14479     14476     14478     14480
     14476     14478     14528     14479     14478     14480     14479     14478     14528
     14480     14478     14528     14469     14481     14482     14469     14481     14483
     14469     14481     14484     14482     14481     14483     14482     14481     14484
     14483     14481     14484     14481     14484     14485     14481     14484     14486
     14481     14484     14487     14485     14484     14486     14485     14484     14487
     14486     14484     14487     14484     14487     14488     14484     14487     14489
     14484     14487     14490     14488     14487     14489     14488     14487     14490
     14489     14487     14490     14487     14490     14491     14487     14490     14492
     14487     14490     14493     14491     14490     14492     14491     14490     14493
     14492     14490     14493     14490     14493     14494     14490     14493     14495
     14490     14493     14496     14494     14493     14495     14494     14493     14496
     14495     14493     14496     14493     14496     14497     14493     14496     14498
     14493     14496     14499     14497     14496     14498     14497     14496     14499
     14498     14496     14499     14496     14499     14500     14496     14499     14501
     14500     14499     14501     14499     14501     14502     14499     14501     14503
     14502     14501     14503     14501     14503     14504     14501     14503     14505
     14501     14503     14506     14504     14503     14505     14504     14503     14506
     14505     14503     14506     14503     14506     14507     14503     14506     14508
     14503     14506     14509     14507     14506     14508     14507     14506     14509
     14508     14506     14509     14506     14509     14510     14506     14509     14511
     14506     14509     14512     14510     14509     14511     14510     14509     14512
     14511     14509     14512     14509     14512     14513     14509     14512     14514
     14509     14512     14515     14513     14512     14514     14513     14512     14515
     14514     14512     14515     14512     14515     14516     14512     14515     14517
     14512     14515     14518     14516     14515     14517     14516     14515     14518
     14517     14515     14518     14515     14518     14519     14515     14518     14520
     14515     14518     14521     14519     14518     14520     14519     14518     14521
     14520     14518     14521     14518     14521     14522     14518     14521     14523
     14518     14521     14524     14522     14521     14523     14522     14521     14524
     14523     14521     14524     14521     14524     14525     14521     14524     14526
     14521     14524     14527     14525     14524     14526     14525     14524     14527
     14526     14524     14527     14478     14528     14529     14478     14528     14530
     14478     14528     14531     14529     14528     14530     14529     14528     14531
     14530     14528     14531     14528     14531     14532     14528     14531     14533
     14528     14531     14534     14532     14531     14533     14532     14531     14534
     14533     14531     14534     14531     14534     14535     14531     14534     14536
     14531     14534     14537     14535     14534     14536     14535     14534     14537
     14536     14534     14537     14534     14537     14538     14534     14537     14539
     14534     14537     14540     14538     14537     14539     14538     14537     14540
     14539     14537     14540     14537     14540     14541     14537     14540     14542
     14537     14540     14543     14541     14540     14542     14541     14540     14543
     14542     14540     14543     14540     14543     14544     14540     14543     14545
     14540     14543     14546     14544     14543     14545     14544     14543     14546
     14545     14543     14546     14543     14546     14547     14543     14546     14548
     14543     14546     14549     14547     14546     14548     14547     14546     14549
     14548     14546     14549     14546     14549     14550     14546     14549     14551
     14546     14549     14552     14550     14549     14551     14550     14549     14552
     14551     14549     14552     14549     14552     14553     14549     14552     14554
     14549     14552     14555     14553     14552     14554     14553     14552     14555
     14554     14552     14555     14552     14555     14556     14552     14555     14557
     14552     14555     14558     14556     14555     14557     14556     14555     14558
     14557     14555     14558     14555     14558     14559     14555     14558     14560
     14555     14558     14561     14559     14558     14560     14559     14558     14561
     14560     14558     14561     14558     14561     14562     14558     14561     14563
     14558     14561     14564     14562     14561     14563     14562     14561     14564
     14563     14561     14564     14561     14564     14565     14561     14564     14566
     14561     14564     14567     14565     14564     14566     14565     14564     14567
     14566     14564     14567     14564     14567     14568     14564     14567     14569
     14564     14567     14570     14568     14567     14569     14568     14567     14570
     14569     14567     14570     14572     14571     14573     14572     14571     14574
     14572     14571     14575     14573     14571     14574     14573     14571     14575
     14574     14571     14575     14571     14575     14576     14571     14575     14577
     14571     14575     14580     14576     14575     14577     14576     14575     14580
     14577     14575     14580     14575     14577     14578     14575     14577     14579
     14578     14577     14579     14575     14580     14581     14575     14580     14582
     14575     14580     14586     14581     14580     14582     14581     14580     14586
     14582     14580     14586     14584     14583     14585     14584     14583     14586
     14584     14583     14587     14585     14583     14586     14585     14583     14587
     14586     14583     14587     14580     14586     14583     14583     14587     14588
     14587     14588     14589     14587     14588     14590     14587     14588     14591
     14589     14588     14590     14589     14588     14591     14590     14588     14591
     14588     14591     14592     14588     14591     14593     14588     14591     14599
     14592     14591     14593     14592     14591     14599     14593     14591     14599
     14591     14593     14594     14593     14594     14595     14593     14594     14596
     14595     14594     14596     14594     14596     14597     14594     14596     14598
     14594     14596     14608     14597     14596     14598     14597     14596     14608
     14598     14596     14608     14591     14599     14600     14591     14599     14601
     14591     14599     14602     14600     14599     14601     14600     14599     14602
     14601     14599     14602     14599     14602     14603     14602     14603     14604
     14602     14603     14605     14604     14603     14605     14603     14605     14606
     14603     14605     14607     14603     14605     14655     14606     14605     14607
     14606     14605     14655     14607     14605     14655     14596     14608     14609
     14596     14608     14610     14596     14608     14611     14609     14608     14610
     14609     14608     14611     14610     14608     14611     14608     14611     14612
     14608     14611     14613     14608     14611     14614     14612     14611     14613
     14612     14611     14614     14613     14611     14614     14611     14614     14615
     14611     14614     14616     14611     14614     14617     14615     14614     14616
     14615     14614     14617     14616     14614     14617     14614     14617     14618
     14614     14617     14619     14614     14617     14620     14618     14617     14619
     14618     14617     14620     14619     14617     14620     14617     14620     14621
     14617     14620     14622     14617     14620     14623     14621     14620     14622
     14621     14620     14623     14622     14620     14623     14620     14623     14624
     14620     14623     14625     14620     14623     14626     14624     14623     14625
     14624     14623     14626     14625     14623     14626     14623     14626     14627
     14623     14626     14628     14627     14626     14628     14626     14628     14629
     14626     14628     14630     14629     14628     14630     14628     14630     14631
     14628     14630     14632     14628     14630     14633     14631     14630     14632
     14631     14630     14633     14632     14630     14633     14630     14633     14634
     14630     14633     14635     14630     14633     14636     14634     14633     14635
     14634     14633     14636     14635     14633     14636     14633     14636     14637
     14633     14636     14638     14633     14636     14639     14637     14636     14638
     14637     14636     14639     14638     14636     14639     14636     14639     14640
     14636     14639     14641     14636     14639     14642     14640     14639     14641
     14640     14639     14642     14641     14639     14642     14639     14642     14643
     14639     14642     14644     14639     14642     14645     14643     14642     14644
     14643     14642     14645     14644     14642     14645     14642     14645     14646
     14642     14645     14647     14642     14645     14648     14646     14645     14647
     14646     14645     14648     14647     14645     14648     14645     14648     14649
     14645     14648     14650     14645     14648     14651     14649     14648     14650
     14649     14648     14651     14650     14648     14651     14648     14651     14652
     14648     14651     14653     14648     14651     14654     14652     14651     14653
     14652     14651     14654     14653     14651     14654     14605     14655     14656
     14605     14655     14657     14605     14655     14658     14656     14655     14657
     14656     14655     14658     14657     14655     14658     14655     14658     14659
     14655     14658     14660     14655     14658     14661     14659     14658     14660
     14659     14658     14661     14660     14658     14661     14658     14661     14662
     14658     14661     14663     14658     14661     14664     14662     14661     14663
     14662     14661     14664     14663     14661     14664     14661     14664     14665
     14661     14664     14666     14661     14664     14667     14665     14664     14666
     14665     14664     14667     14666     14664     14667     14664     14667     14668
     14664     14667     14669     14664     14667     14670     14668     14667     14669
     14668     14667     14670     14669     14667     14670     14667     14670     14671
     14667     14670     14672     14667     14670     14673     14671     14670     14672
     14671     14670     14673     14672     14670     14673     14670     14673     14674
     14670     14673     14675     14670     14673     14676     14674     14673     14675
     14674     14673     14676     14675     14673     14676     14673     14676     14677
     14673     14676     14678     14673     14676     14679     14677     14676     14678
     14677     14676     14679     14678     14676     14679     14676     14679     14680
     14676     14679     14681     14676     14679     14682     14680     14679     14681
     14680     14679     14682     14681     14679     14682     14679     14682     14683
     14679     14682     14684     14679     14682     14685     14683     14682     14684
     14683     14682     14685     14684     14682     14685     14682     14685     14686
     14682     14685     14687     14682     14685     14688     14686     14685     14687
     14686     14685     14688     14687     14685     14688     14685     14688     14689
     14685     14688     14690     14685     14688     14691     14689     14688     14690
     14689     14688     14691     14690     14688     14691     14688     14691     14692
     14688     14691     14693     14688     14691     14694     14692     14691     14693
     14692     14691     14694     14693     14691     14694     14691     14694     14695
     14691     14694     14696     14691     14694     14697     14695     14694     14696
     14695     14694     14697     14696     14694     14697     14699     14698     14700
     14699     14698     14701     14699     14698     14702     14700     14698     14701
     14700     14698     14702     14701     14698     14702     14698     14702     14703
     14698     14702     14704     14698     14702     14707     14703     14702     14704
     14703     14702     14707     14704     14702     14707     14702     14704     14705
     14702     14704     14706     14705     14704     14706     14702     14707     14708
     14702     14707     14709     14702     14707     14713     14708     14707     14709
     14708     14707     14713     14709     14707     14713     14711     14710     14712
     14711     14710     14713     14711     14710     14714     14712     14710     14713
     14712     14710     14714     14713     14710     14714     14707     14713     14710
     14710     14714     14715     14714     14715     14716     14714     14715     14717
     14714     14715     14718     14716     14715     14717     14716     14715     14718
     14717     14715     14718     14715     14718     14719     14715     14718     14720
     14715     14718     14726     14719     14718     14720     14719     14718     14726
     14720     14718     14726     14718     14720     14721     14720     14721     14722
     14720     14721     14723     14722     14721     14723     14721     14723     14724
     14721     14723     14725     14721     14723     14735     14724     14723     14725
     14724     14723     14735     14725     14723     14735     14718     14726     14727
     14718     14726     14728     14718     14726     14729     14727     14726     14728
     14727     14726     14729     14728     14726     14729     14726     14729     14730
     14729     14730     14731     14729     14730     14732     14731     14730     14732
     14730     14732     14733     14730     14732     14734     14730     14732     14782
     14733     14732     14734     14733     14732     14782     14734     14732     14782
     14723     14735     14736     14723     14735     14737     14723     14735     14738
     14736     14735     14737     14736     14735     14738     14737     14735     14738
     14735     14738     14739     14735     14738     14740     14735     14738     14741
     14739     14738     14740     14739     14738     14741     14740     14738     14741
     14738     14741     14742     14738     14741     14743     14738     14741     14744
     14742     14741     14743     14742     14741     14744     14743     14741     14744
     14741     14744     14745     14741     14744     14746     14741     14744     14747
     14745     14744     14746     14745     14744     14747     14746     14744     14747
     14744     14747     14748     14744     14747     14749     14744     14747     14750
     14748     14747     14749     14748     14747     14750     14749     14747     14750
     14747     14750     14751     14747     14750     14752     14747     14750     14753
     14751     14750     14752     14751     14750     14753     14752     14750     14753
     14750     14753     14754     14750     14753     14755     14754     14753     14755
     14753     14755     14756     14753     14755     14757     14756     14755     14757
     14755     14757     14758     14755     14757     14759     14755     14757     14760
     14758     14757     14759     14758     14757     14760     14759     14757     14760
     14757     14760     14761     14757     14760     14762     14757     14760     14763
     14761     14760     14762     14761     14760     14763     14762     14760     14763
     14760     14763     14764     14760     14763     14765     14760     14763     14766
     14764     14763     14765     14764     14763     14766     14765     14763     14766
     14763     14766     14767     14763     14766     14768     14763     14766     14769
     14767     14766     14768     14767     14766     14769     14768     14766     14769
     14766     14769     14770     14766     14769     14771     14766     14769     14772
     14770     14769     14771     14770     14769     14772     14771     14769     14772
     14769     14772     14773     14769     14772     14774     14769     14772     14775
     14773     14772     14774     14773     14772     14775     14774     14772     14775
     14772     14775     14776     14772     14775     14777     14772     14775     14778
     14776     14775     14777     14776     14775     14778     14777     14775     14778
     14775     14778     14779     14775     14778     14780     14775     14778     14781
     14779     14778     14780     14779     14778     14781     14780     14778     14781
     14732     14782     14783     14732     14782     14784     14732     14782     14785
     14783     14782     14784     14783     14782     14785     14784     14782     14785
     14782     14785     14786     14782     14785     14787     14782     14785     14788
     14786     14785     14787     14786     14785     14788     14787     14785     14788
     14785     14788     14789     14785     14788     14790     14785     14788     14791
     14789     14788     14790     14789     14788     14791     14790     14788     14791
     14788     14791     14792     14788     14791     14793     14788     14791     14794
     14792     14791     14793     14792     14791     14794     14793     14791     14794
     14791     14794     14795     14791     14794     14796     14791     14794     14797
     14795     14794     14796     14795     14794     14797     14796     14794     14797
     14794     14797     14798     14794     14797     14799     14794     14797     14800
     14798     14797     14799     14798     14797     14800     14799     14797     14800
     14797     14800     14801     14797     14800     14802     14797     14800     14803
     14801     14800     14802     14801     14800     14803     14802     14800     14803
     14800     14803     14804     14800     14803     14805     14800     14803     14806
     14804     14803     14805     14804     14803     14806     14805     14803     14806
     14803     14806     14807     14803     14806     14808     14803     14806     14809
     14807     14806     14808     14807     14806     14809     14808     14806     14809
     14806     14809     14810     14806     14809     14811     14806     14809     14812
     14810     14809     14811     14810     14809     14812     14811     14809     14812
     14809     14812     14813     14809     14812     14814     14809     14812     14815
     14813     14812     14814     14813     14812     14815     14814     14812     14815
     14812     14815     14816     14812     14815     14817     14812     14815     14818
     14816     14815     14817     14816     14815     14818     14817     14815     14818
     14815     14818     14819     14815     14818     14820     14815     14818     14821
     14819     14818     14820     14819     14818     14821     14820     14818     14821
     14818     14821     14822     14818     14821     14823     14818     14821     14824
     14822     14821     14823     14822     14821     14824     14823     14821     14824
     14826     14825     14829     14826     14825     14833     14826     14825     14837
     14829     14825     14833     14829     14825     14837     14833     14825     14837
     14825     14826     14827     14825     14826     14828     14825     14826     14841
     14827     14826     14828     14827     14826     14841     14828     14826     14841
     14825     14829     14830     14825     14829     14831     14825     14829     14832
     14830     14829     14831     14830     14829     14832     14831     14829     14832
     14825     14833     14834     14825     14833     14835     14825     14833     14836
     14834     14833     14835     14834     14833     14836     14835     14833     14836
     14825     14837     14838     14825     14837     14839     14825     14837     14840
     14838     14837     14839     14838     14837     14840     14839     14837     14840
     14826     14841     14842     14826     14841     14843     14826     14841     14847
     14842     14841     14843     14842     14841     14847     14843     14841     14847
     14845     14844     14846     14845     14844     14847     14845     14844     14848
     14846     14844     14847     14846     14844     14848     14847     14844     14848
     14841     14847     14844     14844     14848     14849     14848     14849     14850
     14848     14849     14851     14848     14849     14852     14850     14849     14851
     14850     14849     14852     14851     14849     14852     14849     14852     14853
     14849     14852     14854     14849     14852     14860     14853     14852     14854
     14853     14852     14860     14854     14852     14860     14852     14854     14855
     14854     14855     14856     14854     14855     14857     14856     14855     14857
     14855     14857     14858     14855     14857     14859     14855     14857     14869
     14858     14857     14859     14858     14857     14869     14859     14857     14869
     14852     14860     14861     14852     14860     14862     14852     14860     14863
     14861     14860     14862     14861     14860     14863     14862     14860     14863
     14860     14863     14864     14863     14864     14865     14863     14864     14866
     14865     14864     14866     14864     14866     14867     14864     14866     14868
     14864     14866     14916     14867     14866     14868     14867     14866     14916
     14868     14866     14916     14857     14869     14870     14857     14869     14871
     14857     14869     14872     14870     14869     14871     14870     14869     14872
     14871     14869     14872     14869     14872     14873     14869     14872     14874
     14869     14872     14875     14873     14872     14874     14873     14872     14875
     14874     14872     14875     14872     14875     14876     14872     14875     14877
     14872     14875     14878     14876     14875     14877     14876     14875     14878
     14877     14875     14878     14875     14878     14879     14875     14878     14880
     14875     14878     14881     14879     14878     14880     14879     14878     14881
     14880     14878     14881     14878     14881     14882     14878     14881     14883
     14878     14881     14884     14882     14881     14883     14882     14881     14884
     14883     14881     14884     14881     14884     14885     14881     14884     14886
     14881     14884     14887     14885     14884     14886     14885     14884     14887
     14886     14884     14887     14884     14887     14888     14884     14887     14889
     14888     14887     14889     14887     14889     14890     14887     14889     14891
     14890     14889     14891     14889     14891     14892     14889     14891     14893
     14889     14891     14894     14892     14891     14893     14892     14891     14894
     14893     14891     14894     14891     14894     14895     14891     14894     14896
     14891     14894     14897     14895     14894     14896     14895     14894     14897
     14896     14894     14897     14894     14897     14898     14894     14897     14899
     14894     14897     14900     14898     14897     14899     14898     14897     14900
     14899     14897     14900     14897     14900     14901     14897     14900     14902
     14897     14900     14903     14901     14900     14902     14901     14900     14903
     14902     14900     14903     14900     14903     14904     14900     14903     14905
     14900     14903     14906     14904     14903     14905     14904     14903     14906
     14905     14903     14906     14903     14906     14907     14903     14906     14908
     14903     14906     14909     14907     14906     14908     14907     14906     14909
     14908     14906     14909     14906     14909     14910     14906     14909     14911
     14906     14909     14912     14910     14909     14911     14910     14909     14912
     14911     14909     14912     14909     14912     14913     14909     14912     14914
     14909     14912     14915     14913     14912     14914     14913     14912     14915
     14914     14912     14915     14866     14916     14917     14866     14916     14918
     14866     14916     14919     14917     14916     14918     14917     14916     14919
     14918     14916     14919     14916     14919     14920     14916     14919     14921
     14916     14919     14922     14920     14919     14921     14920     14919     14922
     14921     14919     14922     14919     14922     14923     14919     14922     14924
     14919     14922     14925     14923     14922     14924     14923     14922     14925
     14924     14922     14925     14922     14925     14926     14922     14925     14927
     14922     14925     14928     14926     14925     14927     14926     14925     14928
     14927     14925     14928     14925     14928     14929     14925     14928     14930
     14925     14928     14931     14929     14928     14930     14929     14928     14931
     14930     14928     14931     14928     14931     14932     14928     14931     14933
     14928     14931     14934     14932     14931     14933     14932     14931     14934
     14933     14931     14934     14931     14934     14935     14931     14934     14936
     14931     14934     14937     14935     14934     14936     14935     14934     14937
     14936     14934     14937     14934     14937     14938     14934     14937     14939
     14934     14937     14940     14938     14937     14939     14938     14937     14940
     14939     14937     14940     14937     14940     14941     14937     14940     14942
     14937     14940     14943     14941     14940     14942     14941     14940     14943
     14942     14940     14943     14940     14943     14944     14940     14943     14945
     14940     14943     14946     14944     14943     14945     14944     14943     14946
     14945     14943     14946     14943     14946     14947     14943     14946     14948
     14943     14946     14949     14947     14946     14948     14947     14946     14949
     14948     14946     14949     14946     14949     14950     14946     14949     14951
     14946     14949     14952     14950     14949     14951     14950     14949     14952
     14951     14949     14952     14949     14952     14953     14949     14952     14954
     14949     14952     14955     14953     14952     14954     14953     14952     14955
     14954     14952     14955     14952     14955     14956     14952     14955     14957
     14952     14955     14958     14956     14955     14957     14956     14955     14958
     14957     14955     14958     14960     14959     14963     14960     14959     14967
     14960     14959     14971     14963     14959     14967     14963     14959     14971
     14967     14959     14971     14959     14960     14961     14959     14960     14962
     14959     14960     14975     14961     14960     14962     14961     14960     14975
     14962     14960     14975     14959     14963     14964     14959     14963     14965
     14959     14963     14966     14964     14963     14965     14964     14963     14966
     14965     14963     14966     14959     14967     14968     14959     14967     14969
     14959     14967     14970     14968     14967     14969     14968     14967     14970
     14969     14967     14970     14959     14971     14972     14959     14971     14973
     14959     14971     14974     14972     14971     14973     14972     14971     14974
     14973     14971     14974     14960     14975     14976     14960     14975     14977
     14960     14975     14981     14976     14975     14977     14976     14975     14981
     14977     14975     14981     14979     14978     14980     14979     14978     14981
     14979     14978     14982     14980     14978     14981     14980     14978     14982
     14981     14978     14982     14975     14981     14978     14978     14982     14983
     14982     14983     14984     14982     14983     14985     14982     14983     14986
     14984     14983     14985     14984     14983     14986     14985     14983     14986
     14983     14986     14987     14983     14986     14988     14983     14986     14994
     14987     14986     14988     14987     14986     14994     14988     14986     14994
     14986     14988     14989     14988     14989     14990     14988     14989     14991
     14990     14989     14991     14989     14991     14992     14989     14991     14993
     14989     14991     15003     14992     14991     14993     14992     14991     15003
     14993     14991     15003     14986     14994     14995     14986     14994     14996
     14986     14994     14997     14995     14994     14996     14995     14994     14997
     14996     14994     14997     14994     14997     14998     14997     14998     14999
     14997     14998     15000     14999     14998     15000     14998     15000     15001
     14998     15000     15002     14998     15000     15050     15001     15000     15002
     15001     15000     15050     15002     15000     15050     14991     15003     15004
     14991     15003     15005     14991     15003     15006     15004     15003     15005
     15004     15003     15006     15005     15003     15006     15003     15006     15007
     15003     15006     15008     15003     15006     15009     15007     15006     15008
     15007     15006     15009     15008     15006     15009     15006     15009     15010
     15006     15009     15011     15006     15009     15012     15010     15009     15011
     15010     15009     15012     15011     15009     15012     15009     15012     15013
     15009     15012     15014     15009     15012     15015     15013     15012     15014
     15013     15012     15015     15014     15012     15015     15012     15015     15016
     15012     15015     15017     15012     15015     15018     15016     15015     15017
     15016     15015     15018     15017     15015     15018     15015     15018     15019
     15015     15018     15020     15015     15018     15021     15019     15018     15020
     15019     15018     15021     15020     15018     15021     15018     15021     15022
     15018     15021     15023     15022     15021     15023     15021     15023     15024
     15021     15023     15025     15024     15023     15025     15023     15025     15026
     15023     15025     15027     15023     15025     15028     15026     15025     15027
     15026     15025     15028     15027     15025     15028     15025     15028     15029
     15025     15028     15030     15025     15028     15031     15029     15028     15030
     15029     15028     15031     15030     15028     15031     15028     15031     15032
     15028     15031     15033     15028     15031     15034     15032     15031     15033
     15032     15031     15034     15033     15031     15034     15031     15034     15035
     15031     15034     15036     15031     15034     15037     15035     15034     15036
     15035     15034     15037     15036     15034     15037     15034     15037     15038
     15034     15037     15039     15034     15037     15040     15038     15037     15039
     15038     15037     15040     15039     15037     15040     15037     15040     15041
     15037     15040     15042     15037     15040     15043     15041     15040     15042
     15041     15040     15043     15042     15040     15043     15040     15043     15044
     15040     15043     15045     15040     15043     15046     15044     15043     15045
     15044     15043     15046     15045     15043     15046     15043     15046     15047
     15043     15046     15048     15043     15046     15049     15047     15046     15048
     15047     15046     15049     15048     15046     15049     15000     15050     15051
     15000     15050     15052     15000     15050     15053     15051     15050     15052
     15051     15050     15053     15052     15050     15053     15050     15053     15054
     15050     15053     15055     15050     15053     15056     15054     15053     15055
     15054     15053     15056     15055     15053     15056     15053     15056     15057
     15053     15056     15058     15053     15056     15059     15057     15056     15058
     15057     15056     15059     15058     15056     15059     15056     15059     15060
     15056     15059     15061     15056     15059     15062     15060     15059     15061
     15060     15059     15062     15061     15059     15062     15059     15062     15063
     15059     15062     15064     15059     15062     15065     15063     15062     15064
     15063     15062     15065     15064     15062     15065     15062     15065     15066
     15062     15065     15067     15062     15065     15068     15066     15065     15067
     15066     15065     15068     15067     15065     15068     15065     15068     15069
     15065     15068     15070     15065     15068     15071     15069     15068     15070
     15069     15068     15071     15070     15068     15071     15068     15071     15072
     15068     15071     15073     15068     15071     15074     15072     15071     15073
     15072     15071     15074     15073     15071     15074     15071     15074     15075
     15071     15074     15076     15071     15074     15077     15075     15074     15076
     15075     15074     15077     15076     15074     15077     15074     15077     15078
     15074     15077     15079     15074     15077     15080     15078     15077     15079
     15078     15077     15080     15079     15077     15080     15077     15080     15081
     15077     15080     15082     15077     15080     15083     15081     15080     15082
     15081     15080     15083     15082     15080     15083     15080     15083     15084
     15080     15083     15085     15080     15083     15086     15084     15083     15085
     15084     15083     15086     15085     15083     15086     15083     15086     15087
     15083     15086     15088     15083     15086     15089     15087     15086     15088
     15087     15086     15089     15088     15086     15089     15086     15089     15090
     15086     15089     15091     15086     15089     15092     15090     15089     15091
     15090     15089     15092     15091     15089     15092     15094     15093     15097
     15094     15093     15101     15094     15093     15105     15097     15093     15101
     15097     15093     15105     15101     15093     15105     15093     15094     15095
     15093     15094     15096     15093     15094     15109     15095     15094     15096
     15095     15094     15109     15096     15094     15109     15093     15097     15098
     15093     15097     15099     15093     15097     15100     15098     15097     15099
     15098     15097     15100     15099     15097     15100     15093     15101     15102
     15093     15101     15103     15093     15101     15104     15102     15101     15103
     15102     15101     15104     15103     15101     15104     15093     15105     15106
     15093     15105     15107     15093     15105     15108     15106     15105     15107
     15106     15105     15108     15107     15105     15108     15094     15109     15110
     15094     15109     15111     15094     15109     15115     15110     15109     15111
     15110     15109     15115     15111     15109     15115     15113     15112     15114
     15113     15112     15115     15113     15112     15116     15114     15112     15115
     15114     15112     15116     15115     15112     15116     15109     15115     15112
     15112     15116     15117     15116     15117     15118     15116     15117     15119
     15116     15117     15120     15118     15117     15119     15118     15117     15120
     15119     15117     15120     15117     15120     15121     15117     15120     15122
     15117     15120     15128     15121     15120     15122     15121     15120     15128
     15122     15120     15128     15120     15122     15123     15122     15123     15124
     15122     15123     15125     15124     15123     15125     15123     15125     15126
     15123     15125     15127     15123     15125     15137     15126     15125     15127
     15126     15125     15137     15127     15125     15137     15120     15128     15129
     15120     15128     15130     15120     15128     15131     15129     15128     15130
     15129     15128     15131     15130     15128     15131     15128     15131     15132
     15131     15132     15133     15131     15132     15134     15133     15132     15134
     15132     15134     15135     15132     15134     15136     15132     15134     15184
     15135     15134     15136     15135     15134     15184     15136     15134     15184
     15125     15137     15138     15125     15137     15139     15125     15137     15140
     15138     15137     15139     15138     15137     15140     15139     15137     15140
     15137     15140     15141     15137     15140     15142     15137     15140     15143
     15141     15140     15142     15141     15140     15143     15142     15140     15143
     15140     15143     15144     15140     15143     15145     15140     15143     15146
     15144     15143     15145     15144     15143     15146     15145     15143     15146
     15143     15146     15147     15143     15146     15148     15143     15146     15149
     15147     15146     15148     15147     15146     15149     15148     15146     15149
     15146     15149     15150     15146     15149     15151     15146     15149     15152
     15150     15149     15151     15150     15149     15152     15151     15149     15152
     15149     15152     15153     15149     15152     15154     15149     15152     15155
     15153     15152     15154     15153     15152     15155     15154     15152     15155
     15152     15155     15156     15152     15155     15157     15156     15155     15157
     15155     15157     15158     15155     15157     15159     15158     15157     15159
     15157     15159     15160     15157     15159     15161     15157     15159     15162
     15160     15159     15161     15160     15159     15162     15161     15159     15162
     15159     15162     15163     15159     15162     15164     15159     15162     15165
     15163     15162     15164     15163     15162     15165     15164     15162     15165
     15162     15165     15166     15162     15165     15167     15162     15165     15168
     15166     15165     15167     15166     15165     15168     15167     15165     15168
     15165     15168     15169     15165     15168     15170     15165     15168     15171
     15169     15168     15170     15169     15168     15171     15170     15168     15171
     15168     15171     15172     15168     15171     15173     15168     15171     15174
     15172     15171     15173     15172     15171     15174     15173     15171     15174
     15171     15174     15175     15171     15174     15176     15171     15174     15177
     15175     15174     15176     15175     15174     15177     15176     15174     15177
     15174     15177     15178     15174     15177     15179     15174     15177     15180
     15178     15177     15179     15178     15177     15180     15179     15177     15180
     15177     15180     15181     15177     15180     15182     15177     15180     15183
     15181     15180     15182     15181     15180     15183     15182     15180     15183
     15134     15184     15185     15134     15184     15186     15134     15184     15187
     15185     15184     15186     15185     15184     15187     15186     15184     15187
     15184     15187     15188     15184     15187     15189     15184     15187     15190
     15188     15187     15189     15188     15187     15190     15189     15187     15190
     15187     15190     15191     15187     15190     15192     15187     15190     15193
     15191     15190     15192     15191     15190     15193     15192     15190     15193
     15190     15193     15194     15190     15193     15195     15190     15193     15196
     15194     15193     15195     15194     15193     15196     15195     15193     15196
     15193     15196     15197     15193     15196     15198     15193     15196     15199
     15197     15196     15198     15197     15196     15199     15198     15196     15199
     15196     15199     15200     15196     15199     15201     15196     15199     15202
     15200     15199     15201     15200     15199     15202     15201     15199     15202
     15199     15202     15203     15199     15202     15204     15199     15202     15205
     15203     15202     15204     15203     15202     15205     15204     15202     15205
     15202     15205     15206     15202     15205     15207     15202     15205     15208
     15206     15205     15207     15206     15205     15208     15207     15205     15208
     15205     15208     15209     15205     15208     15210     15205     15208     15211
     15209     15208     15210     15209     15208     15211     15210     15208     15211
     15208     15211     15212     15208     15211     15213     15208     15211     15214
     15212     15211     15213     15212     15211     15214     15213     15211     15214
     15211     15214     15215     15211     15214     15216     15211     15214     15217
     15215     15214     15216     15215     15214     15217     15216     15214     15217
     15214     15217     15218     15214     15217     15219     15214     15217     15220
     15218     15217     15219     15218     15217     15220     15219     15217     15220
     15217     15220     15221     15217     15220     15222     15217     15220     15223
     15221     15220     15222     15221     15220     15223     15222     15220     15223
     15220     15223     15224     15220     15223     15225     15220     15223     15226
     15224     15223     15225     15224     15223     15226     15225     15223     15226
     15228     15227     15231     15228     15227     15235     15228     15227     15239
     15231     15227     15235     15231     15227     15239     15235     15227     15239
     15227     15228     15229     15227     15228     15230     15227     15228     15243
     15229     15228     15230     15229     15228     15243     15230     15228     15243
     15227     15231     15232     15227     15231     15233     15227     15231     15234
     15232     15231     15233     15232     15231     15234     15233     15231     15234
     15227     15235     15236     15227     15235     15237     15227     15235     15238
     15236     15235     15237     15236     15235     15238     15237     15235     15238
     15227     15239     15240     15227     15239     15241     15227     15239     15242
     15240     15239     15241     15240     15239     15242     15241     15239     15242
     15228     15243     15244     15228     15243     15245     15228     15243     15249
     15244     15243     15245     15244     15243     15249     15245     15243     15249
     15247     15246     15248     15247     15246     15249     15247     15246     15250
     15248     15246     15249     15248     15246     15250     15249     15246     15250
     15243     15249     15246     15246     15250     15251     15250     15251     15252
     15250     15251     15253     15250     15251     15254     15252     15251     15253
     15252     15251     15254     15253     15251     15254     15251     15254     15255
     15251     15254     15256     15251     15254     15262     15255     15254     15256
     15255     15254     15262     15256     15254     15262     15254     15256     15257
     15256     15257     15258     15256     15257     15259     15258     15257     15259
     15257     15259     15260     15257     15259     15261     15257     15259     15271
     15260     15259     15261     15260     15259     15271     15261     15259     15271
     15254     15262     15263     15254     15262     15264     15254     15262     15265
     15263     15262     15264     15263     15262     15265     15264     15262     15265
     15262     15265     15266     15265     15266     15267     15265     15266     15268
     15267     15266     15268     15266     15268     15269     15266     15268     15270
     15266     15268     15318     15269     15268     15270     15269     15268     15318
     15270     15268     15318     15259     15271     15272     15259     15271     15273
     15259     15271     15274     15272     15271     15273     15272     15271     15274
     15273     15271     15274     15271     15274     15275     15271     15274     15276
     15271     15274     15277     15275     15274     15276     15275     15274     15277
     15276     15274     15277     15274     15277     15278     15274     15277     15279
     15274     15277     15280     15278     15277     15279     15278     15277     15280
     15279     15277     15280     15277     15280     15281     15277     15280     15282
     15277     15280     15283     15281     15280     15282     15281     15280     15283
     15282     15280     15283     15280     15283     15284     15280     15283     15285
     15280     15283     15286     15284     15283     15285     15284     15283     15286
     15285     15283     15286     15283     15286     15287     15283     15286     15288
     15283     15286     15289     15287     15286     15288     15287     15286     15289
     15288     15286     15289     15286     15289     15290     15286     15289     15291
     15290     15289     15291     15289     15291     15292     15289     15291     15293
     15292     15291     15293     15291     15293     15294     15291     15293     15295
     15291     15293     15296     15294     15293     15295     15294     15293     15296
     15295     15293     15296     15293     15296     15297     15293     15296     15298
     15293     15296     15299     15297     15296     15298     15297     15296     15299
     15298     15296     15299     15296     15299     15300     15296     15299     15301
     15296     15299     15302     15300     15299     15301     15300     15299     15302
     15301     15299     15302     15299     15302     15303     15299     15302     15304
     15299     15302     15305     15303     15302     15304     15303     15302     15305
     15304     15302     15305     15302     15305     15306     15302     15305     15307
     15302     15305     15308     15306     15305     15307     15306     15305     15308
     15307     15305     15308     15305     15308     15309     15305     15308     15310
     15305     15308     15311     15309     15308     15310     15309     15308     15311
     15310     15308     15311     15308     15311     15312     15308     15311     15313
     15308     15311     15314     15312     15311     15313     15312     15311     15314
     15313     15311     15314     15311     15314     15315     15311     15314     15316
     15311     15314     15317     15315     15314     15316     15315     15314     15317
     15316     15314     15317     15268     15318     15319     15268     15318     15320
     15268     15318     15321     15319     15318     15320     15319     15318     15321
     15320     15318     15321     15318     15321     15322     15318     15321     15323
     15318     15321     15324     15322     15321     15323     15322     15321     15324
     15323     15321     15324     15321     15324     15325     15321     15324     15326
     15321     15324     15327     15325     15324     15326     15325     15324     15327
     15326     15324     15327     15324     15327     15328     15324     15327     15329
     15324     15327     15330     15328     15327     15329     15328     15327     15330
     15329     15327     15330     15327     15330     15331     15327     15330     15332
     15327     15330     15333     15331     15330     15332     15331     15330     15333
     15332     15330     15333     15330     15333     15334     15330     15333     15335
     15330     15333     15336     15334     15333     15335     15334     15333     15336
     15335     15333     15336     15333     15336     15337     15333     15336     15338
     15333     15336     15339     15337     15336     15338     15337     15336     15339
     15338     15336     15339     15336     15339     15340     15336     15339     15341
     15336     15339     15342     15340     15339     15341     15340     15339     15342
     15341     15339     15342     15339     15342     15343     15339     15342     15344
     15339     15342     15345     15343     15342     15344     15343     15342     15345
     15344     15342     15345     15342     15345     15346     15342     15345     15347
     15342     15345     15348     15346     15345     15347     15346     15345     15348
     15347     15345     15348     15345     15348     15349     15345     15348     15350
     15345     15348     15351     15349     15348     15350     15349     15348     15351
     15350     15348     15351     15348     15351     15352     15348     15351     15353
     15348     15351     15354     15352     15351     15353     15352     15351     15354
     15353     15351     15354     15351     15354     15355     15351     15354     15356
     15351     15354     15357     15355     15354     15356     15355     15354     15357
     15356     15354     15357     15354     15357     15358     15354     15357     15359
     15354     15357     15360     15358     15357     15359     15358     15357     15360
     15359     15357     15360     15362     15361     15363     15362     15361     15364
     15362     15361     15365     15363     15361     15364     15363     15361     15365
     15364     15361     15365     15361     15365     15366     15361     15365     15367
     15361     15365     15370     15366     15365     15367     15366     15365     15370
     15367     15365     15370     15365     15367     15368     15365     15367     15369
     15368     15367     15369     15365     15370     15371     15365     15370     15372
     15365     15370     15376     15371     15370     15372     15371     15370     15376
     15372     15370     15376     15374     15373     15375     15374     15373     15376
     15374     15373     15377     15375     15373     15376     15375     15373     15377
     15376     15373     15377     15370     15376     15373     15373     15377     15378
     15377     15378     15379     15377     15378     15380     15377     15378     15381
     15379     15378     15380     15379     15378     15381     15380     15378     15381
     15378     15381     15382     15378     15381     15383     15378     15381     15389
     15382     15381     15383     15382     15381     15389     15383     15381     15389
     15381     15383     15384     15383     15384     15385     15383     15384     15386
     15385     15384     15386     15384     15386     15387     15384     15386     15388
     15384     15386     15398     15387     15386     15388     15387     15386     15398
     15388     15386     15398     15381     15389     15390     15381     15389     15391
     15381     15389     15392     15390     15389     15391     15390     15389     15392
     15391     15389     15392     15389     15392     15393     15392     15393     15394
     15392     15393     15395     15394     15393     15395     15393     15395     15396
     15393     15395     15397     15393     15395     15445     15396     15395     15397
     15396     15395     15445     15397     15395     15445     15386     15398     15399
     15386     15398     15400     15386     15398     15401     15399     15398     15400
     15399     15398     15401     15400     15398     15401     15398     15401     15402
     15398     15401     15403     15398     15401     15404     15402     15401     15403
     15402     15401     15404     15403     15401     15404     15401     15404     15405
     15401     15404     15406     15401     15404     15407     15405     15404     15406
     15405     15404     15407     15406     15404     15407     15404     15407     15408
     15404     15407     15409     15404     15407     15410     15408     15407     15409
     15408     15407     15410     15409     15407     15410     15407     15410     15411
     15407     15410     15412     15407     15410     15413     15411     15410     15412
     15411     15410     15413     15412     15410     15413     15410     15413     15414
     15410     15413     15415     15410     15413     15416     15414     15413     15415
     15414     15413     15416     15415     15413     15416     15413     15416     15417
     15413     15416     15418     15417     15416     15418     15416     15418     15419
     15416     15418     15420     15419     15418     15420     15418     15420     15421
     15418     15420     15422     15418     15420     15423     15421     15420     15422
     15421     15420     15423     15422     15420     15423     15420     15423     15424
     15420     15423     15425     15420     15423     15426     15424     15423     15425
     15424     15423     15426     15425     15423     15426     15423     15426     15427
     15423     15426     15428     15423     15426     15429     15427     15426     15428
     15427     15426     15429     15428     15426     15429     15426     15429     15430
     15426     15429     15431     15426     15429     15432     15430     15429     15431
     15430     15429     15432     15431     15429     15432     15429     15432     15433
     15429     15432     15434     15429     15432     15435     15433     15432     15434
     15433     15432     15435     15434     15432     15435     15432     15435     15436
     15432     15435     15437     15432     15435     15438     15436     15435     15437
     15436     15435     15438     15437     15435     15438     15435     15438     15439
     15435     15438     15440     15435     15438     15441     15439     15438     15440
     15439     15438     15441     15440     15438     15441     15438     15441     15442
     15438     15441     15443     15438     15441     15444     15442     15441     15443
     15442     15441     15444     15443     15441     15444     15395     15445     15446
     15395     15445     15447     15395     15445     15448     15446     15445     15447
     15446     15445     15448     15447     15445     15448     15445     15448     15449
     15445     15448     15450     15445     15448     15451     15449     15448     15450
     15449     15448     15451     15450     15448     15451     15448     15451     15452
     15448     15451     15453     15448     15451     15454     15452     15451     15453
     15452     15451     15454     15453     15451     15454     15451     15454     15455
     15451     15454     15456     15451     15454     15457     15455     15454     15456
     15455     15454     15457     15456     15454     15457     15454     15457     15458
     15454     15457     15459     15454     15457     15460     15458     15457     15459
     15458     15457     15460     15459     15457     15460     15457     15460     15461
     15457     15460     15462     15457     15460     15463     15461     15460     15462
     15461     15460     15463     15462     15460     15463     15460     15463     15464
     15460     15463     15465     15460     15463     15466     15464     15463     15465
     15464     15463     15466     15465     15463     15466     15463     15466     15467
     15463     15466     15468     15463     15466     15469     15467     15466     15468
     15467     15466     15469     15468     15466     15469     15466     15469     15470
     15466     15469     15471     15466     15469     15472     15470     15469     15471
     15470     15469     15472     15471     15469     15472     15469     15472     15473
     15469     15472     15474     15469     15472     15475     15473     15472     15474
     15473     15472     15475     15474     15472     15475     15472     15475     15476
     15472     15475     15477     15472     15475     15478     15476     15475     15477
     15476     15475     15478     15477     15475     15478     15475     15478     15479
     15475     15478     15480     15475     15478     15481     15479     15478     15480
     15479     15478     15481     15480     15478     15481     15478     15481     15482
     15478     15481     15483     15478     15481     15484     15482     15481     15483
     15482     15481     15484     15483     15481     15484     15481     15484     15485
     15481     15484     15486     15481     15484     15487     15485     15484     15486
     15485     15484     15487     15486     15484     15487     15489     15488     15490
     15489     15488     15491     15489     15488     15492     15490     15488     15491
     15490     15488     15492     15491     15488     15492     15488     15492     15493
     15488     15492     15494     15488     15492     15497     15493     15492     15494
     15493     15492     15497     15494     15492     15497     15492     15494     15495
     15492     15494     15496     15495     15494     15496     15492     15497     15498
     15492     15497     15499     15492     15497     15503     15498     15497     15499
     15498     15497     15503     15499     15497     15503     15501     15500     15502
     15501     15500     15503     15501     15500     15504     15502     15500     15503
     15502     15500     15504     15503     15500     15504     15497     15503     15500
     15500     15504     15505     15504     15505     15506     15504     15505     15507
     15504     15505     15508     15506     15505     15507     15506     15505     15508
     15507     15505     15508     15505     15508     15509     15505     15508     15510
     15505     15508     15516     15509     15508     15510     15509     15508     15516
     15510     15508     15516     15508     15510     15511     15510     15511     15512
     15510     15511     15513     15512     15511     15513     15511     15513     15514
     15511     15513     15515     15511     15513     15525     15514     15513     15515
     15514     15513     15525     15515     15513     15525     15508     15516     15517
     15508     15516     15518     15508     15516     15519     15517     15516     15518
     15517     15516     15519     15518     15516     15519     15516     15519     15520
     15519     15520     15521     15519     15520     15522     15521     15520     15522
     15520     15522     15523     15520     15522     15524     15520     15522     15572
     15523     15522     15524     15523     15522     15572     15524     15522     15572
     15513     15525     15526     15513     15525     15527     15513     15525     15528
     15526     15525     15527     15526     15525     15528     15527     15525     15528
     15525     15528     15529     15525     15528     15530     15525     15528     15531
     15529     15528     15530     15529     15528     15531     15530     15528     15531
     15528     15531     15532     15528     15531     15533     15528     15531     15534
     15532     15531     15533     15532     15531     15534     15533     15531     15534
     15531     15534     15535     15531     15534     15536     15531     15534     15537
     15535     15534     15536     15535     15534     15537     15536     15534     15537
     15534     15537     15538     15534     15537     15539     15534     15537     15540
     15538     15537     15539     15538     15537     15540     15539     15537     15540
     15537     15540     15541     15537     15540     15542     15537     15540     15543
     15541     15540     15542     15541     15540     15543     15542     15540     15543
     15540     15543     15544     15540     15543     15545     15544     15543     15545
     15543     15545     15546     15543     15545     15547     15546     15545     15547
     15545     15547     15548     15545     15547     15549     15545     15547     15550
     15548     15547     15549     15548     15547     15550     15549     15547     15550
     15547     15550     15551     15547     15550     15552     15547     15550     15553
     15551     15550     15552     15551     15550     15553     15552     15550     15553
     15550     15553     15554     15550     15553     15555     15550     15553     15556
     15554     15553     15555     15554     15553     15556     15555     15553     15556
     15553     15556     15557     15553     15556     15558     15553     15556     15559
     15557     15556     15558     15557     15556     15559     15558     15556     15559
     15556     15559     15560     15556     15559     15561     15556     15559     15562
     15560     15559     15561     15560     15559     15562     15561     15559     15562
     15559     15562     15563     15559     15562     15564     15559     15562     15565
     15563     15562     15564     15563     15562     15565     15564     15562     15565
     15562     15565     15566     15562     15565     15567     15562     15565     15568
     15566     15565     15567     15566     15565     15568     15567     15565     15568
     15565     15568     15569     15565     15568     15570     15565     15568     15571
     15569     15568     15570     15569     15568     15571     15570     15568     15571
     15522     15572     15573     15522     15572     15574     15522     15572     15575
     15573     15572     15574     15573     15572     15575     15574     15572     15575
     15572     15575     15576     15572     15575     15577     15572     15575     15578
     15576     15575     15577     15576     15575     15578     15577     15575     15578
     15575     15578     15579     15575     15578     15580     15575     15578     15581
     15579     15578     15580     15579     15578     15581     15580     15578     15581
     15578     15581     15582     15578     15581     15583     15578     15581     15584
     15582     15581     15583     15582     15581     15584     15583     15581     15584
     15581     15584     15585     15581     15584     15586     15581     15584     15587
     15585     15584     15586     15585     15584     15587     15586     15584     15587
     15584     15587     15588     15584     15587     15589     15584     15587     15590
     15588     15587     15589     15588     15587     15590     15589     15587     15590
     15587     15590     15591     15587     15590     15592     15587     15590     15593
     15591     15590     15592     15591     15590     15593     15592     15590     15593
     15590     15593     15594     15590     15593     15595     15590     15593     15596
     15594     15593     15595     15594     15593     15596     15595     15593     15596
     15593     15596     15597     15593     15596     15598     15593     15596     15599
     15597     15596     15598     15597     15596     15599     15598     15596     15599
     15596     15599     15600     15596     15599     15601     15596     15599     15602
     15600     15599     15601     15600     15599     15602     15601     15599     15602
     15599     15602     15603     15599     15602     15604     15599     15602     15605
     15603     15602     15604     15603     15602     15605     15604     15602     15605
     15602     15605     15606     15602     15605     15607     15602     15605     15608
     15606     15605     15607     15606     15605     15608     15607     15605     15608
     15605     15608     15609     15605     15608     15610     15605     15608     15611
     15609     15608     15610     15609     15608     15611     15610     15608     15611
     15608     15611     15612     15608     15611     15613     15608     15611     15614
     15612     15611     15613     15612     15611     15614     15613     15611     15614
     15616     15615     15619     15616     15615     15623     15616     15615     15627
     15619     15615     15623     15619     15615     15627     15623     15615     15627
     15615     15616     15617     15615     15616     15618     15615     15616     15631
     15617     15616     15618     15617     15616     15631     15618     15616     15631
     15615     15619     15620     15615     15619     15621     15615     15619     15622
     15620     15619     15621     15620     15619     15622     15621     15619     15622
     15615     15623     15624     15615     15623     15625     15615     15623     15626
     15624     15623     15625     15624     15623     15626     15625     15623     15626
     15615     15627     15628     15615     15627     15629     15615     15627     15630
     15628     15627     15629     15628     15627     15630     15629     15627     15630
     15616     15631     15632     15616     15631     15633     15616     15631     15637
     15632     15631     15633     15632     15631     15637     15633     15631     15637
     15635     15634     15636     15635     15634     15637     15635     15634     15638
     15636     15634     15637     15636     15634     15638     15637     15634     15638
     15631     15637     15634     15634     15638     15639     15638     15639     15640
     15638     15639     15641     15638     15639     15642     15640     15639     15641
     15640     15639     15642     15641     15639     15642     15639     15642     15643
     15639     15642     15644     15639     15642     15650     15643     15642     15644
     15643     15642     15650     15644     15642     15650     15642     15644     15645
     15644     15645     15646     15644     15645     15647     15646     15645     15647
     15645     15647     15648     15645     15647     15649     15645     15647     15659
     15648     15647     15649     15648     15647     15659     15649     15647     15659
     15642     15650     15651     15642     15650     15652     15642     15650     15653
     15651     15650     15652     15651     15650     15653     15652     15650     15653
     15650     15653     15654     15653     15654     15655     15653     15654     15656
     15655     15654     15656     15654     15656     15657     15654     15656     15658
     15654     15656     15706     15657     15656     15658     15657     15656     15706
     15658     15656     15706     15647     15659     15660     15647     15659     15661
     15647     15659     15662     15660     15659     15661     15660     15659     15662
     15661     15659     15662     15659     15662     15663     15659     15662     15664
     15659     15662     15665     15663     15662     15664     15663     15662     15665
     15664     15662     15665     15662     15665     15666     15662     15665     15667
     15662     15665     15668     15666     15665     15667     15666     15665     15668
     15667     15665     15668     15665     15668     15669     15665     15668     15670
     15665     15668     15671     15669     15668     15670     15669     15668     15671
     15670     15668     15671     15668     15671     15672     15668     15671     15673
     15668     15671     15674     15672     15671     15673     15672     15671     15674
     15673     15671     15674     15671     15674     15675     15671     15674     15676
     15671     15674     15677     15675     15674     15676     15675     15674     15677
     15676     15674     15677     15674     15677     15678     15674     15677     15679
     15678     15677     15679     15677     15679     15680     15677     15679     15681
     15680     15679     15681     15679     15681     15682     15679     15681     15683
     15679     15681     15684     15682     15681     15683     15682     15681     15684
     15683     15681     15684     15681     15684     15685     15681     15684     15686
     15681     15684     15687     15685     15684     15686     15685     15684     15687
     15686     15684     15687     15684     15687     15688     15684     15687     15689
     15684     15687     15690     15688     15687     15689     15688     15687     15690
     15689     15687     15690     15687     15690     15691     15687     15690     15692
     15687     15690     15693     15691     15690     15692     15691     15690     15693
     15692     15690     15693     15690     15693     15694     15690     15693     15695
     15690     15693     15696     15694     15693     15695     15694     15693     15696
     15695     15693     15696     15693     15696     15697     15693     15696     15698
     15693     15696     15699     15697     15696     15698     15697     15696     15699
     15698     15696     15699     15696     15699     15700     15696     15699     15701
     15696     15699     15702     15700     15699     15701     15700     15699     15702
     15701     15699     15702     15699     15702     15703     15699     15702     15704
     15699     15702     15705     15703     15702     15704     15703     15702     15705
     15704     15702     15705     15656     15706     15707     15656     15706     15708
     15656     15706     15709     15707     15706     15708     15707     15706     15709
     15708     15706     15709     15706     15709     15710     15706     15709     15711
     15706     15709     15712     15710     15709     15711     15710     15709     15712
     15711     15709     15712     15709     15712     15713     15709     15712     15714
     15709     15712     15715     15713     15712     15714     15713     15712     15715
     15714     15712     15715     15712     15715     15716     15712     15715     15717
     15712     15715     15718     15716     15715     15717     15716     15715     15718
     15717     15715     15718     15715     15718     15719     15715     15718     15720
     15715     15718     15721     15719     15718     15720     15719     15718     15721
     15720     15718     15721     15718     15721     15722     15718     15721     15723
     15718     15721     15724     15722     15721     15723     15722     15721     15724
     15723     15721     15724     15721     15724     15725     15721     15724     15726
     15721     15724     15727     15725     15724     15726     15725     15724     15727
     15726     15724     15727     15724     15727     15728     15724     15727     15729
     15724     15727     15730     15728     15727     15729     15728     15727     15730
     15729     15727     15730     15727     15730     15731     15727     15730     15732
     15727     15730     15733     15731     15730     15732     15731     15730     15733
     15732     15730     15733     15730     15733     15734     15730     15733     15735
     15730     15733     15736     15734     15733     15735     15734     15733     15736
     15735     15733     15736     15733     15736     15737     15733     15736     15738
     15733     15736     15739     15737     15736     15738     15737     15736     15739
     15738     15736     15739     15736     15739     15740     15736     15739     15741
     15736     15739     15742     15740     15739     15741     15740     15739     15742
     15741     15739     15742     15739     15742     15743     15739     15742     15744
     15739     15742     15745     15743     15742     15744     15743     15742     15745
     15744     15742     15745     15742     15745     15746     15742     15745     15747
     15742     15745     15748     15746     15745     15747     15746     15745     15748
     15747     15745     15748     15750     15749     15753     15750     15749     15757
     15750     15749     15761     15753     15749     15757     15753     15749     15761
     15757     15749     15761     15749     15750     15751     15749     15750     15752
     15749     15750     15765     15751     15750     15752     15751     15750     15765
     15752     15750     15765     15749     15753     15754     15749     15753     15755
     15749     15753     15756     15754     15753     15755     15754     15753     15756
     15755     15753     15756     15749     15757     15758     15749     15757     15759
     15749     15757     15760     15758     15757     15759     15758     15757     15760
     15759     15757     15760     15749     15761     15762     15749     15761     15763
     15749     15761     15764     15762     15761     15763     15762     15761     15764
     15763     15761     15764     15750     15765     15766     15750     15765     15767
     15750     15765     15771     15766     15765     15767     15766     15765     15771
     15767     15765     15771     15769     15768     15770     15769     15768     15771
     15769     15768     15772     15770     15768     15771     15770     15768     15772
     15771     15768     15772     15765     15771     15768     15768     15772     15773
     15772     15773     15774     15772     15773     15775     15772     15773     15776
     15774     15773     15775     15774     15773     15776     15775     15773     15776
     15773     15776     15777     15773     15776     15778     15773     15776     15784
     15777     15776     15778     15777     15776     15784     15778     15776     15784
     15776     15778     15779     15778     15779     15780     15778     15779     15781
     15780     15779     15781     15779     15781     15782     15779     15781     15783
     15779     15781     15793     15782     15781     15783     15782     15781     15793
     15783     15781     15793     15776     15784     15785     15776     15784     15786
     15776     15784     15787     15785     15784     15786     15785     15784     15787
     15786     15784     15787     15784     15787     15788     15787     15788     15789
     15787     15788     15790     15789     15788     15790     15788     15790     15791
     15788     15790     15792     15788     15790     15840     15791     15790     15792
     15791     15790     15840     15792     15790     15840     15781     15793     15794
     15781     15793     15795     15781     15793     15796     15794     15793     15795
     15794     15793     15796     15795     15793     15796     15793     15796     15797
     15793     15796     15798     15793     15796     15799     15797     15796     15798
     15797     15796     15799     15798     15796     15799     15796     15799     15800
     15796     15799     15801     15796     15799     15802     15800     15799     15801
     15800     15799     15802     15801     15799     15802     15799     15802     15803
     15799     15802     15804     15799     15802     15805     15803     15802     15804
     15803     15802     15805     15804     15802     15805     15802     15805     15806
     15802     15805     15807     15802     15805     15808     15806     15805     15807
     15806     15805     15808     15807     15805     15808     15805     15808     15809
     15805     15808     15810     15805     15808     15811     15809     15808     15810
     15809     15808     15811     15810     15808     15811     15808     15811     15812
     15808     15811     15813     15812     15811     15813     15811     15813     15814
     15811     15813     15815     15814     15813     15815     15813     15815     15816
     15813     15815     15817     15813     15815     15818     15816     15815     15817
     15816     15815     15818     15817     15815     15818     15815     15818     15819
     15815     15818     15820     15815     15818     15821     15819     15818     15820
     15819     15818     15821     15820     15818     15821     15818     15821     15822
     15818     15821     15823     15818     15821     15824     15822     15821     15823
     15822     15821     15824     15823     15821     15824     15821     15824     15825
     15821     15824     15826     15821     15824     15827     15825     15824     15826
     15825     15824     15827     15826     15824     15827     15824     15827     15828
     15824     15827     15829     15824     15827     15830     15828     15827     15829
     15828     15827     15830     15829     15827     15830     15827     15830     15831
     15827     15830     15832     15827     15830     15833     15831     15830     15832
     15831     15830     15833     15832     15830     15833     15830     15833     15834
     15830     15833     15835     15830     15833     15836     15834     15833     15835
     15834     15833     15836     15835     15833     15836     15833     15836     15837
     15833     15836     15838     15833     15836     15839     15837     15836     15838
     15837     15836     15839     15838     15836     15839     15790     15840     15841
     15790     15840     15842     15790     15840     15843     15841     15840     15842
     15841     15840     15843     15842     15840     15843     15840     15843     15844
     15840     15843     15845     15840     15843     15846     15844     15843     15845
     15844     15843     15846     15845     15843     15846     15843     15846     15847
     15843     15846     15848     15843     15846     15849     15847     15846     15848
     15847     15846     15849     15848     15846     15849     15846     15849     15850
     15846     15849     15851     15846     15849     15852     15850     15849     15851
     15850     15849     15852     15851     15849     15852     15849     15852     15853
     15849     15852     15854     15849     15852     15855     15853     15852     15854
     15853     15852     15855     15854     15852     15855     15852     15855     15856
     15852     15855     15857     15852     15855     15858     15856     15855     15857
     15856     15855     15858     15857     15855     15858     15855     15858     15859
     15855     15858     15860     15855     15858     15861     15859     15858     15860
     15859     15858     15861     15860     15858     15861     15858     15861     15862
     15858     15861     15863     15858     15861     15864     15862     15861     15863
     15862     15861     15864     15863     15861     15864     15861     15864     15865
     15861     15864     15866     15861     15864     15867     15865     15864     15866
     15865     15864     15867     15866     15864     15867     15864     15867     15868
     15864     15867     15869     15864     15867     15870     15868     15867     15869
     15868     15867     15870     15869     15867     15870     15867     15870     15871
     15867     15870     15872     15867     15870     15873     15871     15870     15872
     15871     15870     15873     15872     15870     15873     15870     15873     15874
     15870     15873     15875     15870     15873     15876     15874     15873     15875
     15874     15873     15876     15875     15873     15876     15873     15876     15877
     15873     15876     15878     15873     15876     15879     15877     15876     15878
     15877     15876     15879     15878     15876     15879     15876     15879     15880
     15876     15879     15881     15876     15879     15882     15880     15879     15881
     15880     15879     15882     15881     15879     15882     15884     15883     15887
     15884     15883     15891     15884     15883     15895     15887     15883     15891
     15887     15883     15895     15891     15883     15895     15883     15884     15885
     15883     15884     15886     15883     15884     15899     15885     15884     15886
     15885     15884     15899     15886     15884     15899     15883     15887     15888
     15883     15887     15889     15883     15887     15890     15888     15887     15889
     15888     15887     15890     15889     15887     15890     15883     15891     15892
     15883     15891     15893     15883     15891     15894     15892     15891     15893
     15892     15891     15894     15893     15891     15894     15883     15895     15896
     15883     15895     15897     15883     15895     15898     15896     15895     15897
     15896     15895     15898     15897     15895     15898     15884     15899     15900
     15884     15899     15901     15884     15899     15905     15900     15899     15901
     15900     15899     15905     15901     15899     15905     15903     15902     15904
     15903     15902     15905     15903     15902     15906     15904     15902     15905
     15904     15902     15906     15905     15902     15906     15899     15905     15902
     15902     15906     15907     15906     15907     15908     15906     15907     15909
     15906     15907     15910     15908     15907     15909     15908     15907     15910
     15909     15907     15910     15907     15910     15911     15907     15910     15912
     15907     15910     15918     15911     15910     15912     15911     15910     15918
     15912     15910     15918     15910     15912     15913     15912     15913     15914
     15912     15913     15915     15914     15913     15915     15913     15915     15916
     15913     15915     15917     15913     15915     15927     15916     15915     15917
     15916     15915     15927     15917     15915     15927     15910     15918     15919
     15910     15918     15920     15910     15918     15921     15919     15918     15920
     15919     15918     15921     15920     15918     15921     15918     15921     15922
     15921     15922     15923     15921     15922     15924     15923     15922     15924
     15922     15924     15925     15922     15924     15926     15922     15924     15974
     15925     15924     15926     15925     15924     15974     15926     15924     15974
     15915     15927     15928     15915     15927     15929     15915     15927     15930
     15928     15927     15929     15928     15927     15930     15929     15927     15930
     15927     15930     15931     15927     15930     15932     15927     15930     15933
     15931     15930     15932     15931     15930     15933     15932     15930     15933
     15930     15933     15934     15930     15933     15935     15930     15933     15936
     15934     15933     15935     15934     15933     15936     15935     15933     15936
     15933     15936     15937     15933     15936     15938     15933     15936     15939
     15937     15936     15938     15937     15936     15939     15938     15936     15939
     15936     15939     15940     15936     15939     15941     15936     15939     15942
     15940     15939     15941     15940     15939     15942     15941     15939     15942
     15939     15942     15943     15939     15942     15944     15939     15942     15945
     15943     15942     15944     15943     15942     15945     15944     15942     15945
     15942     15945     15946     15942     15945     15947     15946     15945     15947
     15945     15947     15948     15945     15947     15949     15948     15947     15949
     15947     15949     15950     15947     15949     15951     15947     15949     15952
     15950     15949     15951     15950     15949     15952     15951     15949     15952
     15949     15952     15953     15949     15952     15954     15949     15952     15955
     15953     15952     15954     15953     15952     15955     15954     15952     15955
     15952     15955     15956     15952     15955     15957     15952     15955     15958
     15956     15955     15957     15956     15955     15958     15957     15955     15958
     15955     15958     15959     15955     15958     15960     15955     15958     15961
     15959     15958     15960     15959     15958     15961     15960     15958     15961
     15958     15961     15962     15958     15961     15963     15958     15961     15964
     15962     15961     15963     15962     15961     15964     15963     15961     15964
     15961     15964     15965     15961     15964     15966     15961     15964     15967
     15965     15964     15966     15965     15964     15967     15966     15964     15967
     15964     15967     15968     15964     15967     15969     15964     15967     15970
     15968     15967     15969     15968     15967     15970     15969     15967     15970
     15967     15970     15971     15967     15970     15972     15967     15970     15973
     15971     15970     15972     15971     15970     15973     15972     15970     15973
     15924     15974     15975     15924     15974     15976     15924     15974     15977
     15975     15974     15976     15975     15974     15977     15976     15974     15977
     15974     15977     15978     15974     15977     15979     15974     15977     15980
     15978     15977     15979     15978     15977     15980     15979     15977     15980
     15977     15980     15981     15977     15980     15982     15977     15980     15983
     15981     15980     15982     15981     15980     15983     15982     15980     15983
     15980     15983     15984     15980     15983     15985     15980     15983     15986
     15984     15983     15985     15984     15983     15986     15985     15983     15986
     15983     15986     15987     15983     15986     15988     15983     15986     15989
     15987     15986     15988     15987     15986     15989     15988     15986     15989
     15986     15989     15990     15986     15989     15991     15986     15989     15992
     15990     15989     15991     15990     15989     15992     15991     15989     15992
     15989     15992     15993     15989     15992     15994     15989     15992     15995
     15993     15992     15994     15993     15992     15995     15994     15992     15995
     15992     15995     15996     15992     15995     15997     15992     15995     15998
     15996     15995     15997     15996     15995     15998     15997     15995     15998
     15995     15998     15999     15995     15998     16000     15995     15998     16001
     15999     15998     16000     15999     15998     16001     16000     15998     16001
     15998     16001     16002     15998     16001     16003     15998     16001     16004
     16002     16001     16003     16002     16001     16004     16003     16001     16004
     16001     16004     16005     16001     16004     16006     16001     16004     16007
     16005     16004     16006     16005     16004     16007     16006     16004     16007
     16004     16007     16008     16004     16007     16009     16004     16007     16010
     16008     16007     16009     16008     16007     16010     16009     16007     16010
     16007     16010     16011     16007     16010     16012     16007     16010     16013
     16011     16010     16012     16011     16010     16013     16012     16010     16013
     16010     16013     16014     16010     16013     16015     16010     16013     16016
     16014     16013     16015     16014     16013     16016     16015     16013     16016
     16018     16017     16019     16018     16017     16020     16018     16017     16021
     16019     16017     16020     16019     16017     16021     16020     16017     16021
     16017     16021     16022     16017     16021     16023     16017     16021     16026
     16022     16021     16023     16022     16021     16026     16023     16021     16026
     16021     16023     16024     16021     16023     16025     16024     16023     16025
     16021     16026     16027     16021     16026     16028     16021     16026     16032
     16027     16026     16028     16027     16026     16032     16028     16026     16032
     16030     16029     16031     16030     16029     16032     16030     16029     16033
     16031     16029     16032     16031     16029     16033     16032     16029     16033
     16026     16032     16029     16029     16033     16034     16033     16034     16035
     16033     16034     16036     16033     16034     16037     16035     16034     16036
     16035     16034     16037     16036     16034     16037     16034     16037     16038
     16034     16037     16039     16034     16037     16045     16038     16037     16039
     16038     16037     16045     16039     16037     16045     16037     16039     16040
     16039     16040     16041     16039     16040     16042     16041     16040     16042
     16040     16042     16043     16040     16042     16044     16040     16042     16054
     16043     16042     16044     16043     16042     16054     16044     16042     16054
     16037     16045     16046     16037     16045     16047     16037     16045     16048
     16046     16045     16047     16046     16045     16048     16047     16045     16048
     16045     16048     16049     16048     16049     16050     16048     16049     16051
     16050     16049     16051     16049     16051     16052     16049     16051     16053
     16049     16051     16101     16052     16051     16053     16052     16051     16101
     16053     16051     16101     16042     16054     16055     16042     16054     16056
     16042     16054     16057     16055     16054     16056     16055     16054     16057
     16056     16054     16057     16054     16057     16058     16054     16057     16059
     16054     16057     16060     16058     16057     16059     16058     16057     16060
     16059     16057     16060     16057     16060     16061     16057     16060     16062
     16057     16060     16063     16061     16060     16062     16061     16060     16063
     16062     16060     16063     16060     16063     16064     16060     16063     16065
     16060     16063     16066     16064     16063     16065     16064     16063     16066
     16065     16063     16066     16063     16066     16067     16063     16066     16068
     16063     16066     16069     16067     16066     16068     16067     16066     16069
     16068     16066     16069     16066     16069     16070     16066     16069     16071
     16066     16069     16072     16070     16069     16071     16070     16069     16072
     16071     16069     16072     16069     16072     16073     16069     16072     16074
     16073     16072     16074     16072     16074     16075     16072     16074     16076
     16075     16074     16076     16074     16076     16077     16074     16076     16078
     16074     16076     16079     16077     16076     16078     16077     16076     16079
     16078     16076     16079     16076     16079     16080     16076     16079     16081
     16076     16079     16082     16080     16079     16081     16080     16079     16082
     16081     16079     16082     16079     16082     16083     16079     16082     16084
     16079     16082     16085     16083     16082     16084     16083     16082     16085
     16084     16082     16085     16082     16085     16086     16082     16085     16087
     16082     16085     16088     16086     16085     16087     16086     16085     16088
     16087     16085     16088     16085     16088     16089     16085     16088     16090
     16085     16088     16091     16089     16088     16090     16089     16088     16091
     16090     16088     16091     16088     16091     16092     16088     16091     16093
     16088     16091     16094     16092     16091     16093     16092     16091     16094
     16093     16091     16094     16091     16094     16095     16091     16094     16096
     16091     16094     16097     16095     16094     16096     16095     16094     16097
     16096     16094     16097     16094     16097     16098     16094     16097     16099
     16094     16097     16100     16098     16097     16099     16098     16097     16100
     16099     16097     16100     16051     16101     16102     16051     16101     16103
     16051     16101     16104     16102     16101     16103     16102     16101     16104
     16103     16101     16104     16101     16104     16105     16101     16104     16106
     16101     16104     16107     16105     16104     16106     16105     16104     16107
     16106     16104     16107     16104     16107     16108     16104     16107     16109
     16104     16107     16110     16108     16107     16109     16108     16107     16110
     16109     16107     16110     16107     16110     16111     16107     16110     16112
     16107     16110     16113     16111     16110     16112     16111     16110     16113
     16112     16110     16113     16110     16113     16114     16110     16113     16115
     16110     16113     16116     16114     16113     16115     16114     16113     16116
     16115     16113     16116     16113     16116     16117     16113     16116     16118
     16113     16116     16119     16117     16116     16118     16117     16116     16119
     16118     16116     16119     16116     16119     16120     16116     16119     16121
     16116     16119     16122     16120     16119     16121     16120     16119     16122
     16121     16119     16122     16119     16122     16123     16119     16122     16124
     16119     16122     16125     16123     16122     16124     16123     16122     16125
     16124     16122     16125     16122     16125     16126     16122     16125     16127
     16122     16125     16128     16126     16125     16127     16126     16125     16128
     16127     16125     16128     16125     16128     16129     16125     16128     16130
     16125     16128     16131     16129     16128     16130     16129     16128     16131
     16130     16128     16131     16128     16131     16132     16128     16131     16133
     16128     16131     16134     16132     16131     16133     16132     16131     16134
     16133     16131     16134     16131     16134     16135     16131     16134     16136
     16131     16134     16137     16135     16134     16136     16135     16134     16137
     16136     16134     16137     16134     16137     16138     16134     16137     16139
     16134     16137     16140     16138     16137     16139     16138     16137     16140
     16139     16137     16140     16137     16140     16141     16137     16140     16142
     16137     16140     16143     16141     16140     16142     16141     16140     16143
     16142     16140     16143     16145     16144     16148     16145     16144     16152
     16145     16144     16156     16148     16144     16152     16148     16144     16156
     16152     16144     16156     16144     16145     16146     16144     16145     16147
     16144     16145     16160     16146     16145     16147     16146     16145     16160
     16147     16145     16160     16144     16148     16149     16144     16148     16150
     16144     16148     16151     16149     16148     16150     16149     16148     16151
     16150     16148     16151     16144     16152     16153     16144     16152     16154
     16144     16152     16155     16153     16152     16154     16153     16152     16155
     16154     16152     16155     16144     16156     16157     16144     16156     16158
     16144     16156     16159     16157     16156     16158     16157     16156     16159
     16158     16156     16159     16145     16160     16161     16145     16160     16162
     16145     16160     16166     16161     16160     16162     16161     16160     16166
     16162     16160     16166     16164     16163     16165     16164     16163     16166
     16164     16163     16167     16165     16163     16166     16165     16163     16167
     16166     16163     16167     16160     16166     16163     16163     16167     16168
     16167     16168     16169     16167     16168     16170     16167     16168     16171
     16169     16168     16170     16169     16168     16171     16170     16168     16171
     16168     16171     16172     16168     16171     16173     16168     16171     16179
     16172     16171     16173     16172     16171     16179     16173     16171     16179
     16171     16173     16174     16173     16174     16175     16173     16174     16176
     16175     16174     16176     16174     16176     16177     16174     16176     16178
     16174     16176     16188     16177     16176     16178     16177     16176     16188
     16178     16176     16188     16171     16179     16180     16171     16179     16181
     16171     16179     16182     16180     16179     16181     16180     16179     16182
     16181     16179     16182     16179     16182     16183     16182     16183     16184
     16182     16183     16185     16184     16183     16185     16183     16185     16186
     16183     16185     16187     16183     16185     16235     16186     16185     16187
     16186     16185     16235     16187     16185     16235     16176     16188     16189
     16176     16188     16190     16176     16188     16191     16189     16188     16190
     16189     16188     16191     16190     16188     16191     16188     16191     16192
     16188     16191     16193     16188     16191     16194     16192     16191     16193
     16192     16191     16194     16193     16191     16194     16191     16194     16195
     16191     16194     16196     16191     16194     16197     16195     16194     16196
     16195     16194     16197     16196     16194     16197     16194     16197     16198
     16194     16197     16199     16194     16197     16200     16198     16197     16199
     16198     16197     16200     16199     16197     16200     16197     16200     16201
     16197     16200     16202     16197     16200     16203     16201     16200     16202
     16201     16200     16203     16202     16200     16203     16200     16203     16204
     16200     16203     16205     16200     16203     16206     16204     16203     16205
     16204     16203     16206     16205     16203     16206     16203     16206     16207
     16203     16206     16208     16207     16206     16208     16206     16208     16209
     16206     16208     16210     16209     16208     16210     16208     16210     16211
     16208     16210     16212     16208     16210     16213     16211     16210     16212
     16211     16210     16213     16212     16210     16213     16210     16213     16214
     16210     16213     16215     16210     16213     16216     16214     16213     16215
     16214     16213     16216     16215     16213     16216     16213     16216     16217
     16213     16216     16218     16213     16216     16219     16217     16216     16218
     16217     16216     16219     16218     16216     16219     16216     16219     16220
     16216     16219     16221     16216     16219     16222     16220     16219     16221
     16220     16219     16222     16221     16219     16222     16219     16222     16223
     16219     16222     16224     16219     16222     16225     16223     16222     16224
     16223     16222     16225     16224     16222     16225     16222     16225     16226
     16222     16225     16227     16222     16225     16228     16226     16225     16227
     16226     16225     16228     16227     16225     16228     16225     16228     16229
     16225     16228     16230     16225     16228     16231     16229     16228     16230
     16229     16228     16231     16230     16228     16231     16228     16231     16232
     16228     16231     16233     16228     16231     16234     16232     16231     16233
     16232     16231     16234     16233     16231     16234     16185     16235     16236
     16185     16235     16237     16185     16235     16238     16236     16235     16237
     16236     16235     16238     16237     16235     16238     16235     16238     16239
     16235     16238     16240     16235     16238     16241     16239     16238     16240
     16239     16238     16241     16240     16238     16241     16238     16241     16242
     16238     16241     16243     16238     16241     16244     16242     16241     16243
     16242     16241     16244     16243     16241     16244     16241     16244     16245
     16241     16244     16246     16241     16244     16247     16245     16244     16246
     16245     16244     16247     16246     16244     16247     16244     16247     16248
     16244     16247     16249     16244     16247     16250     16248     16247     16249
     16248     16247     16250     16249     16247     16250     16247     16250     16251
     16247     16250     16252     16247     16250     16253     16251     16250     16252
     16251     16250     16253     16252     16250     16253     16250     16253     16254
     16250     16253     16255     16250     16253     16256     16254     16253     16255
     16254     16253     16256     16255     16253     16256     16253     16256     16257
     16253     16256     16258     16253     16256     16259     16257     16256     16258
     16257     16256     16259     16258     16256     16259     16256     16259     16260
     16256     16259     16261     16256     16259     16262     16260     16259     16261
     16260     16259     16262     16261     16259     16262     16259     16262     16263
     16259     16262     16264     16259     16262     16265     16263     16262     16264
     16263     16262     16265     16264     16262     16265     16262     16265     16266
     16262     16265     16267     16262     16265     16268     16266     16265     16267
     16266     16265     16268     16267     16265     16268     16265     16268     16269
     16265     16268     16270     16265     16268     16271     16269     16268     16270
     16269     16268     16271     16270     16268     16271     16268     16271     16272
     16268     16271     16273     16268     16271     16274     16272     16271     16273
     16272     16271     16274     16273     16271     16274     16271     16274     16275
     16271     16274     16276     16271     16274     16277     16275     16274     16276
     16275     16274     16277     16276     16274     16277     16279     16278     16282
     16279     16278     16286     16279     16278     16290     16282     16278     16286
     16282     16278     16290     16286     16278     16290     16278     16279     16280
     16278     16279     16281     16278     16279     16294     16280     16279     16281
     16280     16279     16294     16281     16279     16294     16278     16282     16283
     16278     16282     16284     16278     16282     16285     16283     16282     16284
     16283     16282     16285     16284     16282     16285     16278     16286     16287
     16278     16286     16288     16278     16286     16289     16287     16286     16288
     16287     16286     16289     16288     16286     16289     16278     16290     16291
     16278     16290     16292     16278     16290     16293     16291     16290     16292
     16291     16290     16293     16292     16290     16293     16279     16294     16295
     16279     16294     16296     16279     16294     16300     16295     16294     16296
     16295     16294     16300     16296     16294     16300     16298     16297     16299
     16298     16297     16300     16298     16297     16301     16299     16297     16300
     16299     16297     16301     16300     16297     16301     16294     16300     16297
     16297     16301     16302     16301     16302     16303     16301     16302     16304
     16301     16302     16305     16303     16302     16304     16303     16302     16305
     16304     16302     16305     16302     16305     16306     16302     16305     16307
     16302     16305     16313     16306     16305     16307     16306     16305     16313
     16307     16305     16313     16305     16307     16308     16307     16308     16309
     16307     16308     16310     16309     16308     16310     16308     16310     16311
     16308     16310     16312     16308     16310     16322     16311     16310     16312
     16311     16310     16322     16312     16310     16322     16305     16313     16314
     16305     16313     16315     16305     16313     16316     16314     16313     16315
     16314     16313     16316     16315     16313     16316     16313     16316     16317
     16316     16317     16318     16316     16317     16319     16318     16317     16319
     16317     16319     16320     16317     16319     16321     16317     16319     16369
     16320     16319     16321     16320     16319     16369     16321     16319     16369
     16310     16322     16323     16310     16322     16324     16310     16322     16325
     16323     16322     16324     16323     16322     16325     16324     16322     16325
     16322     16325     16326     16322     16325     16327     16322     16325     16328
     16326     16325     16327     16326     16325     16328     16327     16325     16328
     16325     16328     16329     16325     16328     16330     16325     16328     16331
     16329     16328     16330     16329     16328     16331     16330     16328     16331
     16328     16331     16332     16328     16331     16333     16328     16331     16334
     16332     16331     16333     16332     16331     16334     16333     16331     16334
     16331     16334     16335     16331     16334     16336     16331     16334     16337
     16335     16334     16336     16335     16334     16337     16336     16334     16337
     16334     16337     16338     16334     16337     16339     16334     16337     16340
     16338     16337     16339     16338     16337     16340     16339     16337     16340
     16337     16340     16341     16337     16340     16342     16341     16340     16342
     16340     16342     16343     16340     16342     16344     16343     16342     16344
     16342     16344     16345     16342     16344     16346     16342     16344     16347
     16345     16344     16346     16345     16344     16347     16346     16344     16347
     16344     16347     16348     16344     16347     16349     16344     16347     16350
     16348     16347     16349     16348     16347     16350     16349     16347     16350
     16347     16350     16351     16347     16350     16352     16347     16350     16353
     16351     16350     16352     16351     16350     16353     16352     16350     16353
     16350     16353     16354     16350     16353     16355     16350     16353     16356
     16354     16353     16355     16354     16353     16356     16355     16353     16356
     16353     16356     16357     16353     16356     16358     16353     16356     16359
     16357     16356     16358     16357     16356     16359     16358     16356     16359
     16356     16359     16360     16356     16359     16361     16356     16359     16362
     16360     16359     16361     16360     16359     16362     16361     16359     16362
     16359     16362     16363     16359     16362     16364     16359     16362     16365
     16363     16362     16364     16363     16362     16365     16364     16362     16365
     16362     16365     16366     16362     16365     16367     16362     16365     16368
     16366     16365     16367     16366     16365     16368     16367     16365     16368
     16319     16369     16370     16319     16369     16371     16319     16369     16372
     16370     16369     16371     16370     16369     16372     16371     16369     16372
     16369     16372     16373     16369     16372     16374     16369     16372     16375
     16373     16372     16374     16373     16372     16375     16374     16372     16375
     16372     16375     16376     16372     16375     16377     16372     16375     16378
     16376     16375     16377     16376     16375     16378     16377     16375     16378
     16375     16378     16379     16375     16378     16380     16375     16378     16381
     16379     16378     16380     16379     16378     16381     16380     16378     16381
     16378     16381     16382     16378     16381     16383     16378     16381     16384
     16382     16381     16383     16382     16381     16384     16383     16381     16384
     16381     16384     16385     16381     16384     16386     16381     16384     16387
     16385     16384     16386     16385     16384     16387     16386     16384     16387
     16384     16387     16388     16384     16387     16389     16384     16387     16390
     16388     16387     16389     16388     16387     16390     16389     16387     16390
     16387     16390     16391     16387     16390     16392     16387     16390     16393
     16391     16390     16392     16391     16390     16393     16392     16390     16393
     16390     16393     16394     16390     16393     16395     16390     16393     16396
     16394     16393     16395     16394     16393     16396     16395     16393     16396
     16393     16396     16397     16393     16396     16398     16393     16396     16399
     16397     16396     16398     16397     16396     16399     16398     16396     16399
     16396     16399     16400     16396     16399     16401     16396     16399     16402
     16400     16399     16401     16400     16399     16402     16401     16399     16402
     16399     16402     16403     16399     16402     16404     16399     16402     16405
     16403     16402     16404     16403     16402     16405     16404     16402     16405
     16402     16405     16406     16402     16405     16407     16402     16405     16408
     16406     16405     16407     16406     16405     16408     16407     16405     16408
     16405     16408     16409     16405     16408     16410     16405     16408     16411
     16409     16408     16410     16409     16408     16411     16410     16408     16411
     16413     16412     16414     16413     16412     16415     16413     16412     16416
     16414     16412     16415     16414     16412     16416     16415     16412     16416
     16412     16416     16417     16412     16416     16418     16412     16416     16421
     16417     16416     16418     16417     16416     16421     16418     16416     16421
     16416     16418     16419     16416     16418     16420     16419     16418     16420
     16416     16421     16422     16416     16421     16423     16416     16421     16427
     16422     16421     16423     16422     16421     16427     16423     16421     16427
     16425     16424     16426     16425     16424     16427     16425     16424     16428
     16426     16424     16427     16426     16424     16428     16427     16424     16428
     16421     16427     16424     16424     16428     16429     16428     16429     16430
     16428     16429     16431     16428     16429     16432     16430     16429     16431
     16430     16429     16432     16431     16429     16432     16429     16432     16433
     16429     16432     16434     16429     16432     16440     16433     16432     16434
     16433     16432     16440     16434     16432     16440     16432     16434     16435
     16434     16435     16436     16434     16435     16437     16436     16435     16437
     16435     16437     16438     16435     16437     16439     16435     16437     16449
     16438     16437     16439     16438     16437     16449     16439     16437     16449
     16432     16440     16441     16432     16440     16442     16432     16440     16443
     16441     16440     16442     16441     16440     16443     16442     16440     16443
     16440     16443     16444     16443     16444     16445     16443     16444     16446
     16445     16444     16446     16444     16446     16447     16444     16446     16448
     16444     16446     16496     16447     16446     16448     16447     16446     16496
     16448     16446     16496     16437     16449     16450     16437     16449     16451
     16437     16449     16452     16450     16449     16451     16450     16449     16452
     16451     16449     16452     16449     16452     16453     16449     16452     16454
     16449     16452     16455     16453     16452     16454     16453     16452     16455
     16454     16452     16455     16452     16455     16456     16452     16455     16457
     16452     16455     16458     16456     16455     16457     16456     16455     16458
     16457     16455     16458     16455     16458     16459     16455     16458     16460
     16455     16458     16461     16459     16458     16460     16459     16458     16461
     16460     16458     16461     16458     16461     16462     16458     16461     16463
     16458     16461     16464     16462     16461     16463     16462     16461     16464
     16463     16461     16464     16461     16464     16465     16461     16464     16466
     16461     16464     16467     16465     16464     16466     16465     16464     16467
     16466     16464     16467     16464     16467     16468     16464     16467     16469
     16468     16467     16469     16467     16469     16470     16467     16469     16471
     16470     16469     16471     16469     16471     16472     16469     16471     16473
     16469     16471     16474     16472     16471     16473     16472     16471     16474
     16473     16471     16474     16471     16474     16475     16471     16474     16476
     16471     16474     16477     16475     16474     16476     16475     16474     16477
     16476     16474     16477     16474     16477     16478     16474     16477     16479
     16474     16477     16480     16478     16477     16479     16478     16477     16480
     16479     16477     16480     16477     16480     16481     16477     16480     16482
     16477     16480     16483     16481     16480     16482     16481     16480     16483
     16482     16480     16483     16480     16483     16484     16480     16483     16485
     16480     16483     16486     16484     16483     16485     16484     16483     16486
     16485     16483     16486     16483     16486     16487     16483     16486     16488
     16483     16486     16489     16487     16486     16488     16487     16486     16489
     16488     16486     16489     16486     16489     16490     16486     16489     16491
     16486     16489     16492     16490     16489     16491     16490     16489     16492
     16491     16489     16492     16489     16492     16493     16489     16492     16494
     16489     16492     16495     16493     16492     16494     16493     16492     16495
     16494     16492     16495     16446     16496     16497     16446     16496     16498
     16446     16496     16499     16497     16496     16498     16497     16496     16499
     16498     16496     16499     16496     16499     16500     16496     16499     16501
     16496     16499     16502     16500     16499     16501     16500     16499     16502
     16501     16499     16502     16499     16502     16503     16499     16502     16504
     16499     16502     16505     16503     16502     16504     16503     16502     16505
     16504     16502     16505     16502     16505     16506     16502     16505     16507
     16502     16505     16508     16506     16505     16507     16506     16505     16508
     16507     16505     16508     16505     16508     16509     16505     16508     16510
     16505     16508     16511     16509     16508     16510     16509     16508     16511
     16510     16508     16511     16508     16511     16512     16508     16511     16513
     16508     16511     16514     16512     16511     16513     16512     16511     16514
     16513     16511     16514     16511     16514     16515     16511     16514     16516
     16511     16514     16517     16515     16514     16516     16515     16514     16517
     16516     16514     16517     16514     16517     16518     16514     16517     16519
     16514     16517     16520     16518     16517     16519     16518     16517     16520
     16519     16517     16520     16517     16520     16521     16517     16520     16522
     16517     16520     16523     16521     16520     16522     16521     16520     16523
     16522     16520     16523     16520     16523     16524     16520     16523     16525
     16520     16523     16526     16524     16523     16525     16524     16523     16526
     16525     16523     16526     16523     16526     16527     16523     16526     16528
     16523     16526     16529     16527     16526     16528     16527     16526     16529
     16528     16526     16529     16526     16529     16530     16526     16529     16531
     16526     16529     16532     16530     16529     16531     16530     16529     16532
     16531     16529     16532     16529     16532     16533     16529     16532     16534
     16529     16532     16535     16533     16532     16534     16533     16532     16535
     16534     16532     16535     16532     16535     16536     16532     16535     16537
     16532     16535     16538     16536     16535     16537     16536     16535     16538
     16537     16535     16538     16540     16539     16543     16540     16539     16547
     16540     16539     16551     16543     16539     16547     16543     16539     16551
     16547     16539     16551     16539     16540     16541     16539     16540     16542
     16539     16540     16555     16541     16540     16542     16541     16540     16555
     16542     16540     16555     16539     16543     16544     16539     16543     16545
     16539     16543     16546     16544     16543     16545     16544     16543     16546
     16545     16543     16546     16539     16547     16548     16539     16547     16549
     16539     16547     16550     16548     16547     16549     16548     16547     16550
     16549     16547     16550     16539     16551     16552     16539     16551     16553
     16539     16551     16554     16552     16551     16553     16552     16551     16554
     16553     16551     16554     16540     16555     16556     16540     16555     16557
     16540     16555     16561     16556     16555     16557     16556     16555     16561
     16557     16555     16561     16559     16558     16560     16559     16558     16561
     16559     16558     16562     16560     16558     16561     16560     16558     16562
     16561     16558     16562     16555     16561     16558     16558     16562     16563
     16562     16563     16564     16562     16563     16565     16562     16563     16566
     16564     16563     16565     16564     16563     16566     16565     16563     16566
     16563     16566     16567     16563     16566     16568     16563     16566     16574
     16567     16566     16568     16567     16566     16574     16568     16566     16574
     16566     16568     16569     16568     16569     16570     16568     16569     16571
     16570     16569     16571     16569     16571     16572     16569     16571     16573
     16569     16571     16583     16572     16571     16573     16572     16571     16583
     16573     16571     16583     16566     16574     16575     16566     16574     16576
     16566     16574     16577     16575     16574     16576     16575     16574     16577
     16576     16574     16577     16574     16577     16578     16577     16578     16579
     16577     16578     16580     16579     16578     16580     16578     16580     16581
     16578     16580     16582     16578     16580     16630     16581     16580     16582
     16581     16580     16630     16582     16580     16630     16571     16583     16584
     16571     16583     16585     16571     16583     16586     16584     16583     16585
     16584     16583     16586     16585     16583     16586     16583     16586     16587
     16583     16586     16588     16583     16586     16589     16587     16586     16588
     16587     16586     16589     16588     16586     16589     16586     16589     16590
     16586     16589     16591     16586     16589     16592     16590     16589     16591
     16590     16589     16592     16591     16589     16592     16589     16592     16593
     16589     16592     16594     16589     16592     16595     16593     16592     16594
     16593     16592     16595     16594     16592     16595     16592     16595     16596
     16592     16595     16597     16592     16595     16598     16596     16595     16597
     16596     16595     16598     16597     16595     16598     16595     16598     16599
     16595     16598     16600     16595     16598     16601     16599     16598     16600
     16599     16598     16601     16600     16598     16601     16598     16601     16602
     16598     16601     16603     16602     16601     16603     16601     16603     16604
     16601     16603     16605     16604     16603     16605     16603     16605     16606
     16603     16605     16607     16603     16605     16608     16606     16605     16607
     16606     16605     16608     16607     16605     16608     16605     16608     16609
     16605     16608     16610     16605     16608     16611     16609     16608     16610
     16609     16608     16611     16610     16608     16611     16608     16611     16612
     16608     16611     16613     16608     16611     16614     16612     16611     16613
     16612     16611     16614     16613     16611     16614     16611     16614     16615
     16611     16614     16616     16611     16614     16617     16615     16614     16616
     16615     16614     16617     16616     16614     16617     16614     16617     16618
     16614     16617     16619     16614     16617     16620     16618     16617     16619
     16618     16617     16620     16619     16617     16620     16617     16620     16621
     16617     16620     16622     16617     16620     16623     16621     16620     16622
     16621     16620     16623     16622     16620     16623     16620     16623     16624
     16620     16623     16625     16620     16623     16626     16624     16623     16625
     16624     16623     16626     16625     16623     16626     16623     16626     16627
     16623     16626     16628     16623     16626     16629     16627     16626     16628
     16627     16626     16629     16628     16626     16629     16580     16630     16631
     16580     16630     16632     16580     16630     16633     16631     16630     16632
     16631     16630     16633     16632     16630     16633     16630     16633     16634
     16630     16633     16635     16630     16633     16636     16634     16633     16635
     16634     16633     16636     16635     16633     16636     16633     16636     16637
     16633     16636     16638     16633     16636     16639     16637     16636     16638
     16637     16636     16639     16638     16636     16639     16636     16639     16640
     16636     16639     16641     16636     16639     16642     16640     16639     16641
     16640     16639     16642     16641     16639     16642     16639     16642     16643
     16639     16642     16644     16639     16642     16645     16643     16642     16644
     16643     16642     16645     16644     16642     16645     16642     16645     16646
     16642     16645     16647     16642     16645     16648     16646     16645     16647
     16646     16645     16648     16647     16645     16648     16645     16648     16649
     16645     16648     16650     16645     16648     16651     16649     16648     16650
     16649     16648     16651     16650     16648     16651     16648     16651     16652
     16648     16651     16653     16648     16651     16654     16652     16651     16653
     16652     16651     16654     16653     16651     16654     16651     16654     16655
     16651     16654     16656     16651     16654     16657     16655     16654     16656
     16655     16654     16657     16656     16654     16657     16654     16657     16658
     16654     16657     16659     16654     16657     16660     16658     16657     16659
     16658     16657     16660     16659     16657     16660     16657     16660     16661
     16657     16660     16662     16657     16660     16663     16661     16660     16662
     16661     16660     16663     16662     16660     16663     16660     16663     16664
     16660     16663     16665     16660     16663     16666     16664     16663     16665
     16664     16663     16666     16665     16663     16666     16663     16666     16667
     16663     16666     16668     16663     16666     16669     16667     16666     16668
     16667     16666     16669     16668     16666     16669     16666     16669     16670
     16666     16669     16671     16666     16669     16672     16670     16669     16671
     16670     16669     16672     16671     16669     16672     16674     16673     16677
     16674     16673     16681     16674     16673     16685     16677     16673     16681
     16677     16673     16685     16681     16673     16685     16673     16674     16675
     16673     16674     16676     16673     16674     16689     16675     16674     16676
     16675     16674     16689     16676     16674     16689     16673     16677     16678
     16673     16677     16679     16673     16677     16680     16678     16677     16679
     16678     16677     16680     16679     16677     16680     16673     16681     16682
     16673     16681     16683     16673     16681     16684     16682     16681     16683
     16682     16681     16684     16683     16681     16684     16673     16685     16686
     16673     16685     16687     16673     16685     16688     16686     16685     16687
     16686     16685     16688     16687     16685     16688     16674     16689     16690
     16674     16689     16691     16674     16689     16695     16690     16689     16691
     16690     16689     16695     16691     16689     16695     16693     16692     16694
     16693     16692     16695     16693     16692     16696     16694     16692     16695
     16694     16692     16696     16695     16692     16696     16689     16695     16692
     16692     16696     16697     16696     16697     16698     16696     16697     16699
     16696     16697     16700     16698     16697     16699     16698     16697     16700
     16699     16697     16700     16697     16700     16701     16697     16700     16702
     16697     16700     16708     16701     16700     16702     16701     16700     16708
     16702     16700     16708     16700     16702     16703     16702     16703     16704
     16702     16703     16705     16704     16703     16705     16703     16705     16706
     16703     16705     16707     16703     16705     16717     16706     16705     16707
     16706     16705     16717     16707     16705     16717     16700     16708     16709
     16700     16708     16710     16700     16708     16711     16709     16708     16710
     16709     16708     16711     16710     16708     16711     16708     16711     16712
     16711     16712     16713     16711     16712     16714     16713     16712     16714
     16712     16714     16715     16712     16714     16716     16712     16714     16764
     16715     16714     16716     16715     16714     16764     16716     16714     16764
     16705     16717     16718     16705     16717     16719     16705     16717     16720
     16718     16717     16719     16718     16717     16720     16719     16717     16720
     16717     16720     16721     16717     16720     16722     16717     16720     16723
     16721     16720     16722     16721     16720     16723     16722     16720     16723
     16720     16723     16724     16720     16723     16725     16720     16723     16726
     16724     16723     16725     16724     16723     16726     16725     16723     16726
     16723     16726     16727     16723     16726     16728     16723     16726     16729
     16727     16726     16728     16727     16726     16729     16728     16726     16729
     16726     16729     16730     16726     16729     16731     16726     16729     16732
     16730     16729     16731     16730     16729     16732     16731     16729     16732
     16729     16732     16733     16729     16732     16734     16729     16732     16735
     16733     16732     16734     16733     16732     16735     16734     16732     16735
     16732     16735     16736     16732     16735     16737     16736     16735     16737
     16735     16737     16738     16735     16737     16739     16738     16737     16739
     16737     16739     16740     16737     16739     16741     16737     16739     16742
     16740     16739     16741     16740     16739     16742     16741     16739     16742
     16739     16742     16743     16739     16742     16744     16739     16742     16745
     16743     16742     16744     16743     16742     16745     16744     16742     16745
     16742     16745     16746     16742     16745     16747     16742     16745     16748
     16746     16745     16747     16746     16745     16748     16747     16745     16748
     16745     16748     16749     16745     16748     16750     16745     16748     16751
     16749     16748     16750     16749     16748     16751     16750     16748     16751
     16748     16751     16752     16748     16751     16753     16748     16751     16754
     16752     16751     16753     16752     16751     16754     16753     16751     16754
     16751     16754     16755     16751     16754     16756     16751     16754     16757
     16755     16754     16756     16755     16754     16757     16756     16754     16757
     16754     16757     16758     16754     16757     16759     16754     16757     16760
     16758     16757     16759     16758     16757     16760     16759     16757     16760
     16757     16760     16761     16757     16760     16762     16757     16760     16763
     16761     16760     16762     16761     16760     16763     16762     16760     16763
     16714     16764     16765     16714     16764     16766     16714     16764     16767
     16765     16764     16766     16765     16764     16767     16766     16764     16767
     16764     16767     16768     16764     16767     16769     16764     16767     16770
     16768     16767     16769     16768     16767     16770     16769     16767     16770
     16767     16770     16771     16767     16770     16772     16767     16770     16773
     16771     16770     16772     16771     16770     16773     16772     16770     16773
     16770     16773     16774     16770     16773     16775     16770     16773     16776
     16774     16773     16775     16774     16773     16776     16775     16773     16776
     16773     16776     16777     16773     16776     16778     16773     16776     16779
     16777     16776     16778     16777     16776     16779     16778     16776     16779
     16776     16779     16780     16776     16779     16781     16776     16779     16782
     16780     16779     16781     16780     16779     16782     16781     16779     16782
     16779     16782     16783     16779     16782     16784     16779     16782     16785
     16783     16782     16784     16783     16782     16785     16784     16782     16785
     16782     16785     16786     16782     16785     16787     16782     16785     16788
     16786     16785     16787     16786     16785     16788     16787     16785     16788
     16785     16788     16789     16785     16788     16790     16785     16788     16791
     16789     16788     16790     16789     16788     16791     16790     16788     16791
     16788     16791     16792     16788     16791     16793     16788     16791     16794
     16792     16791     16793     16792     16791     16794     16793     16791     16794
     16791     16794     16795     16791     16794     16796     16791     16794     16797
     16795     16794     16796     16795     16794     16797     16796     16794     16797
     16794     16797     16798     16794     16797     16799     16794     16797     16800
     16798     16797     16799     16798     16797     16800     16799     16797     16800
     16797     16800     16801     16797     16800     16802     16797     16800     16803
     16801     16800     16802     16801     16800     16803     16802     16800     16803
     16800     16803     16804     16800     16803     16805     16800     16803     16806
     16804     16803     16805     16804     16803     16806     16805     16803     16806
     16808     16807     16811     16808     16807     16815     16808     16807     16819
     16811     16807     16815     16811     16807     16819     16815     16807     16819
     16807     16808     16809     16807     16808     16810     16807     16808     16823
     16809     16808     16810     16809     16808     16823     16810     16808     16823
     16807     16811     16812     16807     16811     16813     16807     16811     16814
     16812     16811     16813     16812     16811     16814     16813     16811     16814
     16807     16815     16816     16807     16815     16817     16807     16815     16818
     16816     16815     16817     16816     16815     16818     16817     16815     16818
     16807     16819     16820     16807     16819     16821     16807     16819     16822
     16820     16819     16821     16820     16819     16822     16821     16819     16822
     16808     16823     16824     16808     16823     16825     16808     16823     16829
     16824     16823     16825     16824     16823     16829     16825     16823     16829
     16827     16826     16828     16827     16826     16829     16827     16826     16830
     16828     16826     16829     16828     16826     16830     16829     16826     16830
     16823     16829     16826     16826     16830     16831     16830     16831     16832
     16830     16831     16833     16830     16831     16834     16832     16831     16833
     16832     16831     16834     16833     16831     16834     16831     16834     16835
     16831     16834     16836     16831     16834     16842     16835     16834     16836
     16835     16834     16842     16836     16834     16842     16834     16836     16837
     16836     16837     16838     16836     16837     16839     16838     16837     16839
     16837     16839     16840     16837     16839     16841     16837     16839     16851
     16840     16839     16841     16840     16839     16851     16841     16839     16851
     16834     16842     16843     16834     16842     16844     16834     16842     16845
     16843     16842     16844     16843     16842     16845     16844     16842     16845
     16842     16845     16846     16845     16846     16847     16845     16846     16848
     16847     16846     16848     16846     16848     16849     16846     16848     16850
     16846     16848     16898     16849     16848     16850     16849     16848     16898
     16850     16848     16898     16839     16851     16852     16839     16851     16853
     16839     16851     16854     16852     16851     16853     16852     16851     16854
     16853     16851     16854     16851     16854     16855     16851     16854     16856
     16851     16854     16857     16855     16854     16856     16855     16854     16857
     16856     16854     16857     16854     16857     16858     16854     16857     16859
     16854     16857     16860     16858     16857     16859     16858     16857     16860
     16859     16857     16860     16857     16860     16861     16857     16860     16862
     16857     16860     16863     16861     16860     16862     16861     16860     16863
     16862     16860     16863     16860     16863     16864     16860     16863     16865
     16860     16863     16866     16864     16863     16865     16864     16863     16866
     16865     16863     16866     16863     16866     16867     16863     16866     16868
     16863     16866     16869     16867     16866     16868     16867     16866     16869
     16868     16866     16869     16866     16869     16870     16866     16869     16871
     16870     16869     16871     16869     16871     16872     16869     16871     16873
     16872     16871     16873     16871     16873     16874     16871     16873     16875
     16871     16873     16876     16874     16873     16875     16874     16873     16876
     16875     16873     16876     16873     16876     16877     16873     16876     16878
     16873     16876     16879     16877     16876     16878     16877     16876     16879
     16878     16876     16879     16876     16879     16880     16876     16879     16881
     16876     16879     16882     16880     16879     16881     16880     16879     16882
     16881     16879     16882     16879     16882     16883     16879     16882     16884
     16879     16882     16885     16883     16882     16884     16883     16882     16885
     16884     16882     16885     16882     16885     16886     16882     16885     16887
     16882     16885     16888     16886     16885     16887     16886     16885     16888
     16887     16885     16888     16885     16888     16889     16885     16888     16890
     16885     16888     16891     16889     16888     16890     16889     16888     16891
     16890     16888     16891     16888     16891     16892     16888     16891     16893
     16888     16891     16894     16892     16891     16893     16892     16891     16894
     16893     16891     16894     16891     16894     16895     16891     16894     16896
     16891     16894     16897     16895     16894     16896     16895     16894     16897
     16896     16894     16897     16848     16898     16899     16848     16898     16900
     16848     16898     16901     16899     16898     16900     16899     16898     16901
     16900     16898     16901     16898     16901     16902     16898     16901     16903
     16898     16901     16904     16902     16901     16903     16902     16901     16904
     16903     16901     16904     16901     16904     16905     16901     16904     16906
     16901     16904     16907     16905     16904     16906     16905     16904     16907
     16906     16904     16907     16904     16907     16908     16904     16907     16909
     16904     16907     16910     16908     16907     16909     16908     16907     16910
     16909     16907     16910     16907     16910     16911     16907     16910     16912
     16907     16910     16913     16911     16910     16912     16911     16910     16913
     16912     16910     16913     16910     16913     16914     16910     16913     16915
     16910     16913     16916     16914     16913     16915     16914     16913     16916
     16915     16913     16916     16913     16916     16917     16913     16916     16918
     16913     16916     16919     16917     16916     16918     16917     16916     16919
     16918     16916     16919     16916     16919     16920     16916     16919     16921
     16916     16919     16922     16920     16919     16921     16920     16919     16922
     16921     16919     16922     16919     16922     16923     16919     16922     16924
     16919     16922     16925     16923     16922     16924     16923     16922     16925
     16924     16922     16925     16922     16925     16926     16922     16925     16927
     16922     16925     16928     16926     16925     16927     16926     16925     16928
     16927     16925     16928     16925     16928     16929     16925     16928     16930
     16925     16928     16931     16929     16928     16930     16929     16928     16931
     16930     16928     16931     16928     16931     16932     16928     16931     16933
     16928     16931     16934     16932     16931     16933     16932     16931     16934
     16933     16931     16934     16931     16934     16935     16931     16934     16936
     16931     16934     16937     16935     16934     16936     16935     16934     16937
     16936     16934     16937     16934     16937     16938     16934     16937     16939
     16934     16937     16940     16938     16937     16939     16938     16937     16940
     16939     16937     16940     16942     16941     16943     16942     16941     16944
     16942     16941     16945     16943     16941     16944     16943     16941     16945
     16944     16941     16945     16941     16945     16946     16941     16945     16947
     16941     16945     16950     16946     16945     16947     16946     16945     16950
     16947     16945     16950     16945     16947     16948     16945     16947     16949
     16948     16947     16949     16945     16950     16951     16945     16950     16952
     16945     16950     16956     16951     16950     16952     16951     16950     16956
     16952     16950     16956     16954     16953     16955     16954     16953     16956
     16954     16953     16957     16955     16953     16956     16955     16953     16957
     16956     16953     16957     16950     16956     16953     16953     16957     16958
     16957     16958     16959     16957     16958     16960     16957     16958     16961
     16959     16958     16960     16959     16958     16961     16960     16958     16961
     16958     16961     16962     16958     16961     16963     16958     16961     16969
     16962     16961     16963     16962     16961     16969     16963     16961     16969
     16961     16963     16964     16963     16964     16965     16963     16964     16966
     16965     16964     16966     16964     16966     16967     16964     16966     16968
     16964     16966     16978     16967     16966     16968     16967     16966     16978
     16968     16966     16978     16961     16969     16970     16961     16969     16971
     16961     16969     16972     16970     16969     16971     16970     16969     16972
     16971     16969     16972     16969     16972     16973     16972     16973     16974
     16972     16973     16975     16974     16973     16975     16973     16975     16976
     16973     16975     16977     16973     16975     17025     16976     16975     16977
     16976     16975     17025     16977     16975     17025     16966     16978     16979
     16966     16978     16980     16966     16978     16981     16979     16978     16980
     16979     16978     16981     16980     16978     16981     16978     16981     16982
     16978     16981     16983     16978     16981     16984     16982     16981     16983
     16982     16981     16984     16983     16981     16984     16981     16984     16985
     16981     16984     16986     16981     16984     16987     16985     16984     16986
     16985     16984     16987     16986     16984     16987     16984     16987     16988
     16984     16987     16989     16984     16987     16990     16988     16987     16989
     16988     16987     16990     16989     16987     16990     16987     16990     16991
     16987     16990     16992     16987     16990     16993     16991     16990     16992
     16991     16990     16993     16992     16990     16993     16990     16993     16994
     16990     16993     16995     16990     16993     16996     16994     16993     16995
     16994     16993     16996     16995     16993     16996     16993     16996     16997
     16993     16996     16998     16997     16996     16998     16996     16998     16999
     16996     16998     17000     16999     16998     17000     16998     17000     17001
     16998     17000     17002     16998     17000     17003     17001     17000     17002
     17001     17000     17003     17002     17000     17003     17000     17003     17004
     17000     17003     17005     17000     17003     17006     17004     17003     17005
     17004     17003     17006     17005     17003     17006     17003     17006     17007
     17003     17006     17008     17003     17006     17009     17007     17006     17008
     17007     17006     17009     17008     17006     17009     17006     17009     17010
     17006     17009     17011     17006     17009     17012     17010     17009     17011
     17010     17009     17012     17011     17009     17012     17009     17012     17013
     17009     17012     17014     17009     17012     17015     17013     17012     17014
     17013     17012     17015     17014     17012     17015     17012     17015     17016
     17012     17015     17017     17012     17015     17018     17016     17015     17017
     17016     17015     17018     17017     17015     17018     17015     17018     17019
     17015     17018     17020     17015     17018     17021     17019     17018     17020
     17019     17018     17021     17020     17018     17021     17018     17021     17022
     17018     17021     17023     17018     17021     17024     17022     17021     17023
     17022     17021     17024     17023     17021     17024     16975     17025     17026
     16975     17025     17027     16975     17025     17028     17026     17025     17027
     17026     17025     17028     17027     17025     17028     17025     17028     17029
     17025     17028     17030     17025     17028     17031     17029     17028     17030
     17029     17028     17031     17030     17028     17031     17028     17031     17032
     17028     17031     17033     17028     17031     17034     17032     17031     17033
     17032     17031     17034     17033     17031     17034     17031     17034     17035
     17031     17034     17036     17031     17034     17037     17035     17034     17036
     17035     17034     17037     17036     17034     17037     17034     17037     17038
     17034     17037     17039     17034     17037     17040     17038     17037     17039
     17038     17037     17040     17039     17037     17040     17037     17040     17041
     17037     17040     17042     17037     17040     17043     17041     17040     17042
     17041     17040     17043     17042     17040     17043     17040     17043     17044
     17040     17043     17045     17040     17043     17046     17044     17043     17045
     17044     17043     17046     17045     17043     17046     17043     17046     17047
     17043     17046     17048     17043     17046     17049     17047     17046     17048
     17047     17046     17049     17048     17046     17049     17046     17049     17050
     17046     17049     17051     17046     17049     17052     17050     17049     17051
     17050     17049     17052     17051     17049     17052     17049     17052     17053
     17049     17052     17054     17049     17052     17055     17053     17052     17054
     17053     17052     17055     17054     17052     17055     17052     17055     17056
     17052     17055     17057     17052     17055     17058     17056     17055     17057
     17056     17055     17058     17057     17055     17058     17055     17058     17059
     17055     17058     17060     17055     17058     17061     17059     17058     17060
     17059     17058     17061     17060     17058     17061     17058     17061     17062
     17058     17061     17063     17058     17061     17064     17062     17061     17063
     17062     17061     17064     17063     17061     17064     17061     17064     17065
     17061     17064     17066     17061     17064     17067     17065     17064     17066
     17065     17064     17067     17066     17064     17067     17069     17068     17072
     17069     17068     17076     17069     17068     17080     17072     17068     17076
     17072     17068     17080     17076     17068     17080     17068     17069     17070
     17068     17069     17071     17068     17069     17084     17070     17069     17071
     17070     17069     17084     17071     17069     17084     17068     17072     17073
     17068     17072     17074     17068     17072     17075     17073     17072     17074
     17073     17072     17075     17074     17072     17075     17068     17076     17077
     17068     17076     17078     17068     17076     17079     17077     17076     17078
     17077     17076     17079     17078     17076     17079     17068     17080     17081
     17068     17080     17082     17068     17080     17083     17081     17080     17082
     17081     17080     17083     17082     17080     17083     17069     17084     17085
     17069     17084     17086     17069     17084     17090     17085     17084     17086
     17085     17084     17090     17086     17084     17090     17088     17087     17089
     17088     17087     17090     17088     17087     17091     17089     17087     17090
     17089     17087     17091     17090     17087     17091     17084     17090     17087
     17087     17091     17092     17091     17092     17093     17091     17092     17094
     17091     17092     17095     17093     17092     17094     17093     17092     17095
     17094     17092     17095     17092     17095     17096     17092     17095     17097
     17092     17095     17103     17096     17095     17097     17096     17095     17103
     17097     17095     17103     17095     17097     17098     17097     17098     17099
     17097     17098     17100     17099     17098     17100     17098     17100     17101
     17098     17100     17102     17098     17100     17112     17101     17100     17102
     17101     17100     17112     17102     17100     17112     17095     17103     17104
     17095     17103     17105     17095     17103     17106     17104     17103     17105
     17104     17103     17106     17105     17103     17106     17103     17106     17107
     17106     17107     17108     17106     17107     17109     17108     17107     17109
     17107     17109     17110     17107     17109     17111     17107     17109     17159
     17110     17109     17111     17110     17109     17159     17111     17109     17159
     17100     17112     17113     17100     17112     17114     17100     17112     17115
     17113     17112     17114     17113     17112     17115     17114     17112     17115
     17112     17115     17116     17112     17115     17117     17112     17115     17118
     17116     17115     17117     17116     17115     17118     17117     17115     17118
     17115     17118     17119     17115     17118     17120     17115     17118     17121
     17119     17118     17120     17119     17118     17121     17120     17118     17121
     17118     17121     17122     17118     17121     17123     17118     17121     17124
     17122     17121     17123     17122     17121     17124     17123     17121     17124
     17121     17124     17125     17121     17124     17126     17121     17124     17127
     17125     17124     17126     17125     17124     17127     17126     17124     17127
     17124     17127     17128     17124     17127     17129     17124     17127     17130
     17128     17127     17129     17128     17127     17130     17129     17127     17130
     17127     17130     17131     17127     17130     17132     17131     17130     17132
     17130     17132     17133     17130     17132     17134     17133     17132     17134
     17132     17134     17135     17132     17134     17136     17132     17134     17137
     17135     17134     17136     17135     17134     17137     17136     17134     17137
     17134     17137     17138     17134     17137     17139     17134     17137     17140
     17138     17137     17139     17138     17137     17140     17139     17137     17140
     17137     17140     17141     17137     17140     17142     17137     17140     17143
     17141     17140     17142     17141     17140     17143     17142     17140     17143
     17140     17143     17144     17140     17143     17145     17140     17143     17146
     17144     17143     17145     17144     17143     17146     17145     17143     17146
     17143     17146     17147     17143     17146     17148     17143     17146     17149
     17147     17146     17148     17147     17146     17149     17148     17146     17149
     17146     17149     17150     17146     17149     17151     17146     17149     17152
     17150     17149     17151     17150     17149     17152     17151     17149     17152
     17149     17152     17153     17149     17152     17154     17149     17152     17155
     17153     17152     17154     17153     17152     17155     17154     17152     17155
     17152     17155     17156     17152     17155     17157     17152     17155     17158
     17156     17155     17157     17156     17155     17158     17157     17155     17158
     17109     17159     17160     17109     17159     17161     17109     17159     17162
     17160     17159     17161     17160     17159     17162     17161     17159     17162
     17159     17162     17163     17159     17162     17164     17159     17162     17165
     17163     17162     17164     17163     17162     17165     17164     17162     17165
     17162     17165     17166     17162     17165     17167     17162     17165     17168
     17166     17165     17167     17166     17165     17168     17167     17165     17168
     17165     17168     17169     17165     17168     17170     17165     17168     17171
     17169     17168     17170     17169     17168     17171     17170     17168     17171
     17168     17171     17172     17168     17171     17173     17168     17171     17174
     17172     17171     17173     17172     17171     17174     17173     17171     17174
     17171     17174     17175     17171     17174     17176     17171     17174     17177
     17175     17174     17176     17175     17174     17177     17176     17174     17177
     17174     17177     17178     17174     17177     17179     17174     17177     17180
     17178     17177     17179     17178     17177     17180     17179     17177     17180
     17177     17180     17181     17177     17180     17182     17177     17180     17183
     17181     17180     17182     17181     17180     17183     17182     17180     17183
     17180     17183     17184     17180     17183     17185     17180     17183     17186
     17184     17183     17185     17184     17183     17186     17185     17183     17186
     17183     17186     17187     17183     17186     17188     17183     17186     17189
     17187     17186     17188     17187     17186     17189     17188     17186     17189
     17186     17189     17190     17186     17189     17191     17186     17189     17192
     17190     17189     17191     17190     17189     17192     17191     17189     17192
     17189     17192     17193     17189     17192     17194     17189     17192     17195
     17193     17192     17194     17193     17192     17195     17194     17192     17195
     17192     17195     17196     17192     17195     17197     17192     17195     17198
     17196     17195     17197     17196     17195     17198     17197     17195     17198
     17195     17198     17199     17195     17198     17200     17195     17198     17201
     17199     17198     17200     17199     17198     17201     17200     17198     17201
     17203     17202     17206     17203     17202     17210     17203     17202     17214
     17206     17202     17210     17206     17202     17214     17210     17202     17214
     17202     17203     17204     17202     17203     17205     17202     17203     17218
     17204     17203     17205     17204     17203     17218     17205     17203     17218
     17202     17206     17207     17202     17206     17208     17202     17206     17209
     17207     17206     17208     17207     17206     17209     17208     17206     17209
     17202     17210     17211     17202     17210     17212     17202     17210     17213
     17211     17210     17212     17211     17210     17213     17212     17210     17213
     17202     17214     17215     17202     17214     17216     17202     17214     17217
     17215     17214     17216     17215     17214     17217     17216     17214     17217
     17203     17218     17219     17203     17218     17220     17203     17218     17224
     17219     17218     17220     17219     17218     17224     17220     17218     17224
     17222     17221     17223     17222     17221     17224     17222     17221     17225
     17223     17221     17224     17223     17221     17225     17224     17221     17225
     17218     17224     17221     17221     17225     17226     17225     17226     17227
     17225     17226     17228     17225     17226     17229     17227     17226     17228
     17227     17226     17229     17228     17226     17229     17226     17229     17230
     17226     17229     17231     17226     17229     17237     17230     17229     17231
     17230     17229     17237     17231     17229     17237     17229     17231     17232
     17231     17232     17233     17231     17232     17234     17233     17232     17234
     17232     17234     17235     17232     17234     17236     17232     17234     17246
     17235     17234     17236     17235     17234     17246     17236     17234     17246
     17229     17237     17238     17229     17237     17239     17229     17237     17240
     17238     17237     17239     17238     17237     17240     17239     17237     17240
     17237     17240     17241     17240     17241     17242     17240     17241     17243
     17242     17241     17243     17241     17243     17244     17241     17243     17245
     17241     17243     17293     17244     17243     17245     17244     17243     17293
     17245     17243     17293     17234     17246     17247     17234     17246     17248
     17234     17246     17249     17247     17246     17248     17247     17246     17249
     17248     17246     17249     17246     17249     17250     17246     17249     17251
     17246     17249     17252     17250     17249     17251     17250     17249     17252
     17251     17249     17252     17249     17252     17253     17249     17252     17254
     17249     17252     17255     17253     17252     17254     17253     17252     17255
     17254     17252     17255     17252     17255     17256     17252     17255     17257
     17252     17255     17258     17256     17255     17257     17256     17255     17258
     17257     17255     17258     17255     17258     17259     17255     17258     17260
     17255     17258     17261     17259     17258     17260     17259     17258     17261
     17260     17258     17261     17258     17261     17262     17258     17261     17263
     17258     17261     17264     17262     17261     17263     17262     17261     17264
     17263     17261     17264     17261     17264     17265     17261     17264     17266
     17265     17264     17266     17264     17266     17267     17264     17266     17268
     17267     17266     17268     17266     17268     17269     17266     17268     17270
     17266     17268     17271     17269     17268     17270     17269     17268     17271
     17270     17268     17271     17268     17271     17272     17268     17271     17273
     17268     17271     17274     17272     17271     17273     17272     17271     17274
     17273     17271     17274     17271     17274     17275     17271     17274     17276
     17271     17274     17277     17275     17274     17276     17275     17274     17277
     17276     17274     17277     17274     17277     17278     17274     17277     17279
     17274     17277     17280     17278     17277     17279     17278     17277     17280
     17279     17277     17280     17277     17280     17281     17277     17280     17282
     17277     17280     17283     17281     17280     17282     17281     17280     17283
     17282     17280     17283     17280     17283     17284     17280     17283     17285
     17280     17283     17286     17284     17283     17285     17284     17283     17286
     17285     17283     17286     17283     17286     17287     17283     17286     17288
     17283     17286     17289     17287     17286     17288     17287     17286     17289
     17288     17286     17289     17286     17289     17290     17286     17289     17291
     17286     17289     17292     17290     17289     17291     17290     17289     17292
     17291     17289     17292     17243     17293     17294     17243     17293     17295
     17243     17293     17296     17294     17293     17295     17294     17293     17296
     17295     17293     17296     17293     17296     17297     17293     17296     17298
     17293     17296     17299     17297     17296     17298     17297     17296     17299
     17298     17296     17299     17296     17299     17300     17296     17299     17301
     17296     17299     17302     17300     17299     17301     17300     17299     17302
     17301     17299     17302     17299     17302     17303     17299     17302     17304
     17299     17302     17305     17303     17302     17304     17303     17302     17305
     17304     17302     17305     17302     17305     17306     17302     17305     17307
     17302     17305     17308     17306     17305     17307     17306     17305     17308
     17307     17305     17308     17305     17308     17309     17305     17308     17310
     17305     17308     17311     17309     17308     17310     17309     17308     17311
     17310     17308     17311     17308     17311     17312     17308     17311     17313
     17308     17311     17314     17312     17311     17313     17312     17311     17314
     17313     17311     17314     17311     17314     17315     17311     17314     17316
     17311     17314     17317     17315     17314     17316     17315     17314     17317
     17316     17314     17317     17314     17317     17318     17314     17317     17319
     17314     17317     17320     17318     17317     17319     17318     17317     17320
     17319     17317     17320     17317     17320     17321     17317     17320     17322
     17317     17320     17323     17321     17320     17322     17321     17320     17323
     17322     17320     17323     17320     17323     17324     17320     17323     17325
     17320     17323     17326     17324     17323     17325     17324     17323     17326
     17325     17323     17326     17323     17326     17327     17323     17326     17328
     17323     17326     17329     17327     17326     17328     17327     17326     17329
     17328     17326     17329     17326     17329     17330     17326     17329     17331
     17326     17329     17332     17330     17329     17331     17330     17329     17332
     17331     17329     17332     17329     17332     17333     17329     17332     17334
     17329     17332     17335     17333     17332     17334     17333     17332     17335
     17334     17332     17335     17337     17336     17338     17340     17339     17341
     17343     17342     17344     17346     17345     17347     17349     17348     17350
     17352     17351     17353     17355     17354     17356     17358     17357     17359
     17361     17360     17362     17364     17363     17365     17367     17366     17368
     17370     17369     17371     17373     17372     17374     17376     17375     17377
     17379     17378     17380     17382     17381     17383     17385     17384     17386
     17388     17387     17389     17391     17390     17392     17394     17393     17395
     17397     17396     17398     17400     17399     17401     17403     17402     17404
     17406     17405     17407     17409     17408     17410     17412     17411     17413
     17415     17414     17416     17418     17417     17419     17421     17420     17422
     17424     17423     17425     17427     17426     17428     17430     17429     17431
     17433     17432     17434     17436     17435     17437     17439     17438     17440
     17442     17441     17443     17445     17444     17446     17448     17447     17449
     17451     17450     17452     17454     17453     17455     17457     17456     17458
     17460     17459     17461     17463     17462     17464     17466     17465     17467
     17469     17468     17470     17472     17471     17473     17475     17474     17476
     17478     17477     17479     17481     17480     17482     17484     17483     17485
     17487     17486     17488     17490     17489     17491     17493     17492     17494
     17496     17495     17497     17499     17498     17500     17502     17501     17503
     17505     17504     17506     17508     17507     17509     17511     17510     17512
     17514     17513     17515     17517     17516     17518     17520     17519     17521
     17523     17522     17524     17526     17525     17527     17529     17528     17530
     17532     17531     17533     17535     17534     17536     17538     17537     17539
     17541     17540     17542     17544     17543     17545     17547     17546     17548
     17550     17549     17551     17553     17552     17554     17556     17555     17557
     17559     17558     17560     17562     17561     17563     17565     17564     17566
     17568     17567     17569     17571     17570     17572     17574     17573     17575
     17577     17576     17578     17580     17579     17581     17583     17582     17584
     17586     17585     17587     17589     17588     17590     17592     17591     17593
     17595     17594     17596     17598     17597     17599     17601     17600     17602
     17604     17603     17605     17607     17606     17608     17610     17609     17611
     17613     17612     17614     17616     17615     17617     17619     17618     17620
     17622     17621     17623     17625     17624     17626     17628     17627     17629
     17631     17630     17632     17634     17633     17635     17637     17636     17638
     17640     17639     17641     17643     17642     17644     17646     17645     17647
     17649     17648     17650     17652     17651     17653     17655     17654     17656
     17658     17657     17659     17661     17660     17662     17664     17663     17665
     17667     17666     17668     17670     17669     17671     17673     17672     17674
     17676     17675     17677     17679     17678     17680     17682     17681     17683
     17685     17684     17686     17688     17687     17689     17691     17690     17692
     17694     17693     17695     17697     17696     17698     17700     17699     17701
     17703     17702     17704     17706     17705     17707     17709     17708     17710
     17712     17711     17713     17715     17714     17716     17718     17717     17719
     17721     17720     17722     17724     17723     17725     17727     17726     17728
     17730     17729     17731     17733     17732     17734     17736     17735     17737
     17739     17738     17740     17742     17741     17743     17745     17744     17746
     17748     17747     17749     17751     17750     17752     17754     17753     17755
     17757     17756     17758     17760     17759     17761     17763     17762     17764
     17766     17765     17767     17769     17768     17770     17772     17771     17773
     17775     17774     17776     17778     17777     17779     17781     17780     17782
     17784     17783     17785     17787     17786     17788     17790     17789     17791
     17793     17792     17794     17796     17795     17797     17799     17798     17800
     17802     17801     17803     17805     17804     17806     17808     17807     17809
     17811     17810     17812     17814     17813     17815     17817     17816     17818
     17820     17819     17821     17823     17822     17824     17826     17825     17827
     17829     17828     17830     17832     17831     17833     17835     17834     17836
     17838     17837     17839     17841     17840     17842     17844     17843     17845
     17847     17846     17848     17850     17849     17851     17853     17852     17854
     17856     17855     17857     17859     17858     17860     17862     17861     17863
     17865     17864     17866     17868     17867     17869     17871     17870     17872
     17874     17873     17875     17877     17876     17878     17880     17879     17881
     17883     17882     17884     17886     17885     17887     17889     17888     17890
     17892     17891     17893     17895     17894     17896     17898     17897     17899
     17901     17900     17902     17904     17903     17905     17907     17906     17908
     17910     17909     17911     17913     17912     17914     17916     17915     17917
     17919     17918     17920     17922     17921     17923     17925     17924     17926
     17928     17927     17929     17931     17930     17932     17934     17933     17935
     17937     17936     17938     17940     17939     17941     17943     17942     17944
     17946     17945     17947     17949     17948     17950     17952     17951     17953
     17955     17954     17956     17958     17957     17959     17961     17960     17962
     17964     17963     17965     17967     17966     17968     17970     17969     17971
     17973     17972     17974     17976     17975     17977     17979     17978     17980
     17982     17981     17983     17985     17984     17986     17988     17987     17989
     17991     17990     17992     17994     17993     17995     17997     17996     17998
     18000     17999     18001     18003     18002     18004     18006     18005     18007
     18009     18008     18010     18012     18011     18013     18015     18014     18016
     18018     18017     18019     18021     18020     18022     18024     18023     18025
     18027     18026     18028     18030     18029     18031     18033     18032     18034
     18036     18035     18037     18039     18038     18040     18042     18041     18043
     18045     18044     18046     18048     18047     18049     18051     18050     18052
     18054     18053     18055     18057     18056     18058     18060     18059     18061
     18063     18062     18064     18066     18065     18067     18069     18068     18070
     18072     18071     18073     18075     18074     18076     18078     18077     18079
     18081     18080     18082     18084     18083     18085     18087     18086     18088
     18090     18089     18091     18093     18092     18094     18096     18095     18097
     18099     18098     18100     18102     18101     18103     18105     18104     18106
     18108     18107     18109     18111     18110     18112     18114     18113     18115
     18117     18116     18118     18120     18119     18121     18123     18122     18124
     18126     18125     18127     18129     18128     18130     18132     18131     18133
     18135     18134     18136     18138     18137     18139     18141     18140     18142
     18144     18143     18145     18147     18146     18148     18150     18149     18151
     18153     18152     18154     18156     18155     18157     18159     18158     18160
     18162     18161     18163     18165     18164     18166     18168     18167     18169
     18171     18170     18172     18174     18173     18175     18177     18176     18178
     18180     18179     18181     18183     18182     18184     18186     18185     18187
     18189     18188     18190     18192     18191     18193     18195     18194     18196
     18198     18197     18199     18201     18200     18202     18204     18203     18205
     18207     18206     18208     18210     18209     18211     18213     18212     18214
     18216     18215     18217     18219     18218     18220     18222     18221     18223
     18225     18224     18226     18228     18227     18229     18231     18230     18232
     18234     18233     18235     18237     18236     18238     18240     18239     18241
     18243     18242     18244     18246     18245     18247     18249     18248     18250
     18252     18251     18253     18255     18254     18256     18258     18257     18259
     18261     18260     18262     18264     18263     18265     18267     18266     18268
     18270     18269     18271     18273     18272     18274     18276     18275     18277
     18279     18278     18280     18282     18281     18283     18285     18284     18286
     18288     18287     18289     18291     18290     18292     18294     18293     18295
     18297     18296     18298     18300     18299     18301     18303     18302     18304
     18306     18305     18307     18309     18308     18310     18312     18311     18313
     18315     18314     18316     18318     18317     18319     18321     18320     18322
     18324     18323     18325     18327     18326     18328     18330     18329     18331
     18333     18332     18334     18336     18335     18337     18339     18338     18340
     18342     18341     18343     18345     18344     18346     18348     18347     18349
     18351     18350     18352     18354     18353     18355     18357     18356     18358
     18360     18359     18361     18363     18362     18364     18366     18365     18367
     18369     18368     18370     18372     18371     18373     18375     18374     18376
     18378     18377     18379     18381     18380     18382     18384     18383     18385
     18387     18386     18388     18390     18389     18391     18393     18392     18394
     18396     18395     18397     18399     18398     18400     18402     18401     18403
     18405     18404     18406     18408     18407     18409     18411     18410     18412
     18414     18413     18415     18417     18416     18418     18420     18419     18421
     18423     18422     18424     18426     18425     18427     18429     18428     18430
     18432     18431     18433     18435     18434     18436     18438     18437     18439
     18441     18440     18442     18444     18443     18445     18447     18446     18448
     18450     18449     18451     18453     18452     18454     18456     18455     18457
     18459     18458     18460     18462     18461     18463     18465     18464     18466
     18468     18467     18469     18471     18470     18472     18474     18473     18475
     18477     18476     18478     18480     18479     18481     18483     18482     18484
     18486     18485     18487     18489     18488     18490     18492     18491     18493
     18495     18494     18496     18498     18497     18499     18501     18500     18502
     18504     18503     18505     18507     18506     18508     18510     18509     18511
     18513     18512     18514     18516     18515     18517     18519     18518     18520
     18522     18521     18523     18525     18524     18526     18528     18527     18529
     18531     18530     18532     18534     18533     18535     18537     18536     18538
     18540     18539     18541     18543     18542     18544     18546     18545     18547
     18549     18548     18550     18552     18551     18553     18555     18554     18556
     18558     18557     18559     18561     18560     18562     18564     18563     18565
     18567     18566     18568     18570     18569     18571     18573     18572     18574
     18576     18575     18577     18579     18578     18580     18582     18581     18583
     18585     18584     18586     18588     18587     18589     18591     18590     18592
     18594     18593     18595     18597     18596     18598     18600     18599     18601
     18603     18602     18604     18606     18605     18607     18609     18608     18610
     18612     18611     18613     18615     18614     18616     18618     18617     18619
     18621     18620     18622     18624     18623     18625     18627     18626     18628
     18630     18629     18631     18633     18632     18634     18636     18635     18637
     18639     18638     18640     18642     18641     18643     18645     18644     18646
     18648     18647     18649     18651     18650     18652     18654     18653     18655
     18657     18656     18658     18660     18659     18661     18663     18662     18664
     18666     18665     18667     18669     18668     18670     18672     18671     18673
     18675     18674     18676     18678     18677     18679     18681     18680     18682
     18684     18683     18685     18687     18686     18688     18690     18689     18691
     18693     18692     18694     18696     18695     18697     18699     18698     18700
     18702     18701     18703     18705     18704     18706     18708     18707     18709
     18711     18710     18712     18714     18713     18715     18717     18716     18718
     18720     18719     18721     18723     18722     18724     18726     18725     18727
     18729     18728     18730     18732     18731     18733     18735     18734     18736
     18738     18737     18739     18741     18740     18742     18744     18743     18745
     18747     18746     18748     18750     18749     18751     18753     18752     18754
     18756     18755     18757     18759     18758     18760     18762     18761     18763
     18765     18764     18766     18768     18767     18769     18771     18770     18772
     18774     18773     18775     18777     18776     18778     18780     18779     18781
     18783     18782     18784     18786     18785     18787     18789     18788     18790
     18792     18791     18793     18795     18794     18796     18798     18797     18799
     18801     18800     18802     18804     18803     18805     18807     18806     18808
     18810     18809     18811     18813     18812     18814     18816     18815     18817
     18819     18818     18820     18822     18821     18823     18825     18824     18826
     18828     18827     18829     18831     18830     18832     18834     18833     18835
     18837     18836     18838     18840     18839     18841     18843     18842     18844
     18846     18845     18847     18849     18848     18850     18852     18851     18853
     18855     18854     18856     18858     18857     18859     18861     18860     18862
     18864     18863     18865     18867     18866     18868     18870     18869     18871
     18873     18872     18874     18876     18875     18877     18879     18878     18880
     18882     18881     18883     18885     18884     18886     18888     18887     18889
     18891     18890     18892     18894     18893     18895     18897     18896     18898
     18900     18899     18901     18903     18902     18904     18906     18905     18907
     18909     18908     18910     18912     18911     18913     18915     18914     18916
     18918     18917     18919     18921     18920     18922     18924     18923     18925
     18927     18926     18928     18930     18929     18931     18933     18932     18934
     18936     18935     18937     18939     18938     18940     18942     18941     18943
     18945     18944     18946     18948     18947     18949     18951     18950     18952
     18954     18953     18955     18957     18956     18958     18960     18959     18961
     18963     18962     18964     18966     18965     18967     18969     18968     18970
     18972     18971     18973     18975     18974     18976     18978     18977     18979
     18981     18980     18982     18984     18983     18985     18987     18986     18988
     18990     18989     18991     18993     18992     18994     18996     18995     18997
     18999     18998     19000     19002     19001     19003     19005     19004     19006
     19008     19007     19009     19011     19010     19012     19014     19013     19015
     19017     19016     19018     19020     19019     19021     19023     19022     19024
     19026     19025     19027     19029     19028     19030     19032     19031     19033
     19035     19034     19036     19038     19037     19039     19041     19040     19042
     19044     19043     19045     19047     19046     19048     19050     19049     19051
     19053     19052     19054     19056     19055     19057     19059     19058     19060
     19062     19061     19063     19065     19064     19066     19068     19067     19069
     19071     19070     19072     19074     19073     19075     19077     19076     19078
     19080     19079     19081     19083     19082     19084     19086     19085     19087
     19089     19088     19090     19092     19091     19093     19095     19094     19096
     19098     19097     19099     19101     19100     19102     19104     19103     19105
     19107     19106     19108     19110     19109     19111     19113     19112     19114
     19116     19115     19117     19119     19118     19120     19122     19121     19123
     19125     19124     19126     19128     19127     19129     19131     19130     19132
     19134     19133     19135     19137     19136     19138     19140     19139     19141
     19143     19142     19144     19146     19145     19147     19149     19148     19150
     19152     19151     19153     19155     19154     19156     19158     19157     19159
     19161     19160     19162     19164     19163     19165     19167     19166     19168
     19170     19169     19171     19173     19172     19174     19176     19175     19177
     19179     19178     19180     19182     19181     19183     19185     19184     19186
     19188     19187     19189     19191     19190     19192     19194     19193     19195
     19197     19196     19198     19200     19199     19201     19203     19202     19204
     19206     19205     19207     19209     19208     19210     19212     19211     19213
     19215     19214     19216     19218     19217     19219     19221     19220     19222
     19224     19223     19225     19227     19226     19228     19230     19229     19231
     19233     19232     19234     19236     19235     19237     19239     19238     19240
     19242     19241     19243     19245     19244     19246     19248     19247     19249
     19251     19250     19252     19254     19253     19255     19257     19256     19258
     19260     19259     19261     19263     19262     19264     19266     19265     19267
     19269     19268     19270     19272     19271     19273     19275     19274     19276
     19278     19277     19279     19281     19280     19282     19284     19283     19285
     19287     19286     19288     19290     19289     19291     19293     19292     19294
     19296     19295     19297     19299     19298     19300     19302     19301     19303
     19305     19304     19306     19308     19307     19309     19311     19310     19312
     19314     19313     19315     19317     19316     19318     19320     19319     19321
     19323     19322     19324     19326     19325     19327     19329     19328     19330
     19332     19331     19333     19335     19334     19336     19338     19337     19339
     19341     19340     19342     19344     19343     19345     19347     19346     19348
     19350     19349     19351     19353     19352     19354     19356     19355     19357
     19359     19358     19360     19362     19361     19363     19365     19364     19366
     19368     19367     19369     19371     19370     19372     19374     19373     19375
     19377     19376     19378     19380     19379     19381     19383     19382     19384
     19386     19385     19387     19389     19388     19390     19392     19391     19393
     19395     19394     19396     19398     19397     19399     19401     19400     19402
     19404     19403     19405     19407     19406     19408     19410     19409     19411
     19413     19412     19414     19416     19415     19417     19419     19418     19420
     19422     19421     19423     19425     19424     19426     19428     19427     19429
     19431     19430     19432     19434     19433     19435     19437     19436     19438
     19440     19439     19441     19443     19442     19444     19446     19445     19447
     19449     19448     19450     19452     19451     19453     19455     19454     19456
     19458     19457     19459     19461     19460     19462     19464     19463     19465
     19467     19466     19468     19470     19469     19471     19473     19472     19474
     19476     19475     19477     19479     19478     19480     19482     19481     19483
     19485     19484     19486     19488     19487     19489     19491     19490     19492
     19494     19493     19495     19497     19496     19498     19500     19499     19501
     19503     19502     19504     19506     19505     19507     19509     19508     19510
     19512     19511     19513     19515     19514     19516     19518     19517     19519
     19521     19520     19522     19524     19523     19525     19527     19526     19528
     19530     19529     19531     19533     19532     19534     19536     19535     19537
     19539     19538     19540     19542     19541     19543     19545     19544     19546
     19548     19547     19549     19551     19550     19552     19554     19553     19555
     19557     19556     19558     19560     19559     19561     19563     19562     19564
     19566     19565     19567     19569     19568     19570     19572     19571     19573
     19575     19574     19576     19578     19577     19579     19581     19580     19582
     19584     19583     19585     19587     19586     19588     19590     19589     19591
     19593     19592     19594     19596     19595     19597     19599     19598     19600
     19602     19601     19603     19605     19604     19606     19608     19607     19609
     19611     19610     19612     19614     19613     19615     19617     19616     19618
     19620     19619     19621     19623     19622     19624     19626     19625     19627
     19629     19628     19630     19632     19631     19633     19635     19634     19636
     19638     19637     19639     19641     19640     19642     19644     19643     19645
     19647     19646     19648     19650     19649     19651     19653     19652     19654
     19656     19655     19657     19659     19658     19660     19662     19661     19663
     19665     19664     19666     19668     19667     19669     19671     19670     19672
     19674     19673     19675     19677     19676     19678     19680     19679     19681
     19683     19682     19684     19686     19685     19687     19689     19688     19690
     19692     19691     19693     19695     19694     19696     19698     19697     19699
     19701     19700     19702     19704     19703     19705     19707     19706     19708
     19710     19709     19711     19713     19712     19714     19716     19715     19717
     19719     19718     19720     19722     19721     19723     19725     19724     19726
     19728     19727     19729     19731     19730     19732     19734     19733     19735
     19737     19736     19738     19740     19739     19741     19743     19742     19744
     19746     19745     19747     19749     19748     19750     19752     19751     19753
     19755     19754     19756     19758     19757     19759     19761     19760     19762
     19764     19763     19765     19767     19766     19768     19770     19769     19771
     19773     19772     19774     19776     19775     19777     19779     19778     19780
     19782     19781     19783     19785     19784     19786     19788     19787     19789
     19791     19790     19792     19794     19793     19795     19797     19796     19798
     19800     19799     19801     19803     19802     19804     19806     19805     19807
     19809     19808     19810     19812     19811     19813     19815     19814     19816
     19818     19817     19819     19821     19820     19822     19824     19823     19825
     19827     19826     19828     19830     19829     19831     19833     19832     19834
     19836     19835     19837     19839     19838     19840     19842     19841     19843
     19845     19844     19846     19848     19847     19849     19851     19850     19852
     19854     19853     19855     19857     19856     19858     19860     19859     19861
     19863     19862     19864     19866     19865     19867     19869     19868     19870
     19872     19871     19873     19875     19874     19876     19878     19877     19879
     19881     19880     19882     19884     19883     19885     19887     19886     19888
     19890     19889     19891     19893     19892     19894     19896     19895     19897
     19899     19898     19900     19902     19901     19903     19905     19904     19906
     19908     19907     19909     19911     19910     19912     19914     19913     19915
     19917     19916     19918     19920     19919     19921     19923     19922     19924
     19926     19925     19927     19929     19928     19930     19932     19931     19933
     19935     19934     19936     19938     19937     19939     19941     19940     19942
     19944     19943     19945     19947     19946     19948     19950     19949     19951
     19953     19952     19954     19956     19955     19957     19959     19958     19960
     19962     19961     19963     19965     19964     19966     19968     19967     19969
     19971     19970     19972     19974     19973     19975     19977     19976     19978
     19980     19979     19981     19983     19982     19984     19986     19985     19987
     19989     19988     19990     19992     19991     19993     19995     19994     19996
     19998     19997     19999     20001     20000     20002     20004     20003     20005
     20007     20006     20008     20010     20009     20011     20013     20012     20014
     20016     20015     20017     20019     20018     20020     20022     20021     20023
     20025     20024     20026     20028     20027     20029     20031     20030     20032
     20034     20033     20035     20037     20036     20038     20040     20039     20041
     20043     20042     20044     20046     20045     20047     20049     20048     20050
     20052     20051     20053     20055     20054     20056     20058     20057     20059
     20061     20060     20062     20064     20063     20065     20067     20066     20068
     20070     20069     20071     20073     20072     20074     20076     20075     20077
     20079     20078     20080     20082     20081     20083     20085     20084     20086
     20088     20087     20089     20091     20090     20092     20094     20093     20095
     20097     20096     20098     20100     20099     20101     20103     20102     20104
     20106     20105     20107     20109     20108     20110     20112     20111     20113
     20115     20114     20116     20118     20117     20119     20121     20120     20122
     20124     20123     20125     20127     20126     20128     20130     20129     20131
     20133     20132     20134     20136     20135     20137     20139     20138     20140
     20142     20141     20143     20145     20144     20146     20148     20147     20149
     20151     20150     20152     20154     20153     20155     20157     20156     20158
     20160     20159     20161     20163     20162     20164     20166     20165     20167
     20169     20168     20170     20172     20171     20173     20175     20174     20176
     20178     20177     20179     20181     20180     20182     20184     20183     20185
     20187     20186     20188     20190     20189     20191     20193     20192     20194
     20196     20195     20197     20199     20198     20200     20202     20201     20203
     20205     20204     20206     20208     20207     20209     20211     20210     20212
     20214     20213     20215     20217     20216     20218     20220     20219     20221
     20223     20222     20224     20226     20225     20227     20229     20228     20230
     20232     20231     20233     20235     20234     20236     20238     20237     20239
     20241     20240     20242     20244     20243     20245     20247     20246     20248
     20250     20249     20251     20253     20252     20254     20256     20255     20257
     20259     20258     20260     20262     20261     20263     20265     20264     20266
     20268     20267     20269     20271     20270     20272     20274     20273     20275
     20277     20276     20278     20280     20279     20281     20283     20282     20284
     20286     20285     20287     20289     20288     20290     20292     20291     20293
     20295     20294     20296     20298     20297     20299     20301     20300     20302
     20304     20303     20305     20307     20306     20308     20310     20309     20311
     20313     20312     20314     20316     20315     20317     20319     20318     20320
     20322     20321     20323     20325     20324     20326     20328     20327     20329
     20331     20330     20332     20334     20333     20335     20337     20336     20338
     20340     20339     20341     20343     20342     20344     20346     20345     20347
     20349     20348     20350     20352     20351     20353     20355     20354     20356
     20358     20357     20359     20361     20360     20362     20364     20363     20365
     20367     20366     20368     20370     20369     20371     20373     20372     20374
     20376     20375     20377     20379     20378     20380     20382     20381     20383
     20385     20384     20386     20388     20387     20389     20391     20390     20392
     20394     20393     20395     20397     20396     20398     20400     20399     20401
     20403     20402     20404     20406     20405     20407     20409     20408     20410
     20412     20411     20413     20415     20414     20416     20418     20417     20419
     20421     20420     20422     20424     20423     20425     20427     20426     20428
     20430     20429     20431     20433     20432     20434     20436     20435     20437
     20439     20438     20440     20442     20441     20443     20445     20444     20446
     20448     20447     20449     20451     20450     20452     20454     20453     20455
     20457     20456     20458     20460     20459     20461     20463     20462     20464
     20466     20465     20467     20469     20468     20470     20472     20471     20473
     20475     20474     20476     20478     20477     20479     20481     20480     20482
     20484     20483     20485     20487     20486     20488     20490     20489     20491
     20493     20492     20494     20496     20495     20497     20499     20498     20500
     20502     20501     20503     20505     20504     20506     20508     20507     20509
     20511     20510     20512     20514     20513     20515     20517     20516     20518
     20520     20519     20521     20523     20522     20524     20526     20525     20527
     20529     20528     20530     20532     20531     20533     20535     20534     20536
     20538     20537     20539     20541     20540     20542     20544     20543     20545
     20547     20546     20548     20550     20549     20551     20553     20552     20554
     20556     20555     20557     20559     20558     20560     20562     20561     20563
     20565     20564     20566     20568     20567     20569     20571     20570     20572
     20574     20573     20575     20577     20576     20578     20580     20579     20581
     20583     20582     20584     20586     20585     20587     20589     20588     20590
     20592     20591     20593     20595     20594     20596     20598     20597     20599
     20601     20600     20602     20604     20603     20605     20607     20606     20608
     20610     20609     20611     20613     20612     20614     20616     20615     20617
     20619     20618     20620     20622     20621     20623     20625     20624     20626
     20628     20627     20629     20631     20630     20632     20634     20633     20635
     20637     20636     20638     20640     20639     20641     20643     20642     20644
     20646     20645     20647     20649     20648     20650     20652     20651     20653
     20655     20654     20656     20658     20657     20659     20661     20660     20662
     20664     20663     20665     20667     20666     20668     20670     20669     20671
     20673     20672     20674     20676     20675     20677     20679     20678     20680
     20682     20681     20683     20685     20684     20686     20688     20687     20689
     20691     20690     20692     20694     20693     20695     20697     20696     20698
     20700     20699     20701     20703     20702     20704     20706     20705     20707
     20709     20708     20710     20712     20711     20713     20715     20714     20716
     20718     20717     20719     20721     20720     20722     20724     20723     20725
     20727     20726     20728     20730     20729     20731     20733     20732     20734
     20736     20735     20737     20739     20738     20740     20742     20741     20743
     20745     20744     20746     20748     20747     20749     20751     20750     20752
     20754     20753     20755     20757     20756     20758     20760     20759     20761
     20763     20762     20764     20766     20765     20767     20769     20768     20770
     20772     20771     20773     20775     20774     20776     20778     20777     20779
     20781     20780     20782     20784     20783     20785     20787     20786     20788
     20790     20789     20791     20793     20792     20794     20796     20795     20797
     20799     20798     20800     20802     20801     20803     20805     20804     20806
     20808     20807     20809     20811     20810     20812     20814     20813     20815
     20817     20816     20818     20820     20819     20821     20823     20822     20824
     20826     20825     20827     20829     20828     20830     20832     20831     20833
     20835     20834     20836     20838     20837     20839     20841     20840     20842
     20844     20843     20845     20847     20846     20848     20850     20849     20851
     20853     20852     20854     20856     20855     20857     20859     20858     20860
     20862     20861     20863     20865     20864     20866     20868     20867     20869
     20871     20870     20872     20874     20873     20875     20877     20876     20878
     20880     20879     20881     20883     20882     20884     20886     20885     20887
     20889     20888     20890     20892     20891     20893     20895     20894     20896
     20898     20897     20899     20901     20900     20902     20904     20903     20905
     20907     20906     20908     20910     20909     20911     20913     20912     20914
     20916     20915     20917     20919     20918     20920     20922     20921     20923
     20925     20924     20926     20928     20927     20929     20931     20930     20932
     20934     20933     20935     20937     20936     20938     20940     20939     20941
     20943     20942     20944     20946     20945     20947     20949     20948     20950
     20952     20951     20953     20955     20954     20956     20958     20957     20959
     20961     20960     20962     20964     20963     20965     20967     20966     20968
     20970     20969     20971     20973     20972     20974     20976     20975     20977
     20979     20978     20980     20982     20981     20983     20985     20984     20986
     20988     20987     20989     20991     20990     20992     20994     20993     20995
     20997     20996     20998     21000     20999     21001     21003     21002     21004
     21006     21005     21007     21009     21008     21010     21012     21011     21013
     21015     21014     21016     21018     21017     21019     21021     21020     21022
     21024     21023     21025     21027     21026     21028     21030     21029     21031
     21033     21032     21034     21036     21035     21037     21039     21038     21040
     21042     21041     21043     21045     21044     21046     21048     21047     21049
     21051     21050     21052     21054     21053     21055     21057     21056     21058
     21060     21059     21061     21063     21062     21064     21066     21065     21067
     21069     21068     21070     21072     21071     21073     21075     21074     21076
     21078     21077     21079     21081     21080     21082     21084     21083     21085
     21087     21086     21088     21090     21089     21091     21093     21092     21094
     21096     21095     21097     21099     21098     21100     21102     21101     21103
     21105     21104     21106     21108     21107     21109     21111     21110     21112
     21114     21113     21115     21117     21116     21118     21120     21119     21121
     21123     21122     21124     21126     21125     21127     21129     21128     21130
     21132     21131     21133     21135     21134     21136     21138     21137     21139
     21141     21140     21142     21144     21143     21145     21147     21146     21148
     21150     21149     21151     21153     21152     21154     21156     21155     21157
     21159     21158     21160     21162     21161     21163     21165     21164     21166
     21168     21167     21169     21171     21170     21172     21174     21173     21175
     21177     21176     21178     21180     21179     21181     21183     21182     21184
     21186     21185     21187     21189     21188     21190     21192     21191     21193
     21195     21194     21196     21198     21197     21199     21201     21200     21202
     21204     21203     21205     21207     21206     21208     21210     21209     21211
     21213     21212     21214     21216     21215     21217     21219     21218     21220
     21222     21221     21223     21225     21224     21226     21228     21227     21229
     21231     21230     21232     21234     21233     21235     21237     21236     21238
     21240     21239     21241     21243     21242     21244     21246     21245     21247
     21249     21248     21250     21252     21251     21253     21255     21254     21256
     21258     21257     21259     21261     21260     21262     21264     21263     21265
     21267     21266     21268     21270     21269     21271     21273     21272     21274
     21276     21275     21277     21279     21278     21280     21282     21281     21283
     21285     21284     21286     21288     21287     21289     21291     21290     21292
     21294     21293     21295     21297     21296     21298     21300     21299     21301
     21303     21302     21304     21306     21305     21307     21309     21308     21310
     21312     21311     21313     21315     21314     21316     21318     21317     21319
     21321     21320     21322     21324     21323     21325     21327     21326     21328
     21330     21329     21331     21333     21332     21334     21336     21335     21337
     21339     21338     21340     21342     21341     21343     21345     21344     21346
     21348     21347     21349     21351     21350     21352     21354     21353     21355
     21357     21356     21358     21360     21359     21361     21363     21362     21364
     21366     21365     21367     21369     21368     21370     21372     21371     21373
     21375     21374     21376     21378     21377     21379     21381     21380     21382
     21384     21383     21385     21387     21386     21388     21390     21389     21391
     21393     21392     21394     21396     21395     21397     21399     21398     21400
     21402     21401     21403     21405     21404     21406     21408     21407     21409
     21411     21410     21412     21414     21413     21415     21417     21416     21418
     21420     21419     21421     21423     21422     21424     21426     21425     21427
     21429     21428     21430     21432     21431     21433     21435     21434     21436
     21438     21437     21439     21441     21440     21442     21444     21443     21445
     21447     21446     21448     21450     21449     21451     21453     21452     21454
     21456     21455     21457     21459     21458     21460     21462     21461     21463
     21465     21464     21466     21468     21467     21469     21471     21470     21472
     21474     21473     21475     21477     21476     21478     21480     21479     21481
     21483     21482     21484     21486     21485     21487     21489     21488     21490
     21492     21491     21493     21495     21494     21496     21498     21497     21499
     21501     21500     21502     21504     21503     21505     21507     21506     21508
     21510     21509     21511     21513     21512     21514     21516     21515     21517
     21519     21518     21520     21522     21521     21523     21525     21524     21526
     21528     21527     21529     21531     21530     21532     21534     21533     21535
     21537     21536     21538     21540     21539     21541     21543     21542     21544
     21546     21545     21547     21549     21548     21550     21552     21551     21553
     21555     21554     21556     21558     21557     21559     21561     21560     21562
     21564     21563     21565     21567     21566     21568     21570     21569     21571
     21573     21572     21574     21576     21575     21577     21579     21578     21580
     21582     21581     21583     21585     21584     21586     21588     21587     21589
     21591     21590     21592     21594     21593     21595     21597     21596     21598
     21600     21599     21601     21603     21602     21604     21606     21605     21607
     21609     21608     21610     21612     21611     21613     21615     21614     21616
     21618     21617     21619     21621     21620     21622     21624     21623     21625
     21627     21626     21628     21630     21629     21631     21633     21632     21634
     21636     21635     21637     21639     21638     21640     21642     21641     21643
     21645     21644     21646     21648     21647     21649     21651     21650     21652
     21654     21653     21655     21657     21656     21658     21660     21659     21661
     21663     21662     21664     21666     21665     21667     21669     21668     21670
     21672     21671     21673     21675     21674     21676     21678     21677     21679
     21681     21680     21682     21684     21683     21685     21687     21686     21688
     21690     21689     21691     21693     21692     21694     21696     21695     21697
     21699     21698     21700     21702     21701     21703     21705     21704     21706
     21708     21707     21709     21711     21710     21712     21714     21713     21715
     21717     21716     21718     21720     21719     21721     21723     21722     21724
     21726     21725     21727     21729     21728     21730     21732     21731     21733
     21735     21734     21736     21738     21737     21739     21741     21740     21742
     21744     21743     21745     21747     21746     21748     21750     21749     21751
     21753     21752     21754     21756     21755     21757     21759     21758     21760
     21762     21761     21763     21765     21764     21766     21768     21767     21769
     21771     21770     21772     21774     21773     21775     21777     21776     21778
     21780     21779     21781     21783     21782     21784     21786     21785     21787
     21789     21788     21790     21792     21791     21793     21795     21794     21796
     21798     21797     21799     21801     21800     21802     21804     21803     21805
     21807     21806     21808     21810     21809     21811     21813     21812     21814
     21816     21815     21817     21819     21818     21820     21822     21821     21823
     21825     21824     21826     21828     21827     21829     21831     21830     21832
     21834     21833     21835     21837     21836     21838     21840     21839     21841
     21843     21842     21844     21846     21845     21847     21849     21848     21850
     21852     21851     21853     21855     21854     21856     21858     21857     21859
     21861     21860     21862     21864     21863     21865     21867     21866     21868
     21870     21869     21871     21873     21872     21874     21876     21875     21877
     21879     21878     21880     21882     21881     21883     21885     21884     21886
     21888     21887     21889     21891     21890     21892     21894     21893     21895
     21897     21896     21898     21900     21899     21901     21903     21902     21904
     21906     21905     21907     21909     21908     21910     21912     21911     21913
     21915     21914     21916     21918     21917     21919     21921     21920     21922
     21924     21923     21925     21927     21926     21928     21930     21929     21931
     21933     21932     21934     21936     21935     21937     21939     21938     21940
     21942     21941     21943     21945     21944     21946     21948     21947     21949
     21951     21950     21952     21954     21953     21955     21957     21956     21958
     21960     21959     21961     21963     21962     21964     21966     21965     21967
     21969     21968     21970     21972     21971     21973     21975     21974     21976
     21978     21977     21979     21981     21980     21982     21984     21983     21985
     21987     21986     21988     21990     21989     21991     21993     21992     21994
     21996     21995     21997     21999     21998     22000     22002     22001     22003
     22005     22004     22006     22008     22007     22009     22011     22010     22012
     22014     22013     22015     22017     22016     22018     22020     22019     22021
     22023     22022     22024     22026     22025     22027     22029     22028     22030
     22032     22031     22033     22035     22034     22036     22038     22037     22039
     22041     22040     22042     22044     22043     22045     22047     22046     22048
     22050     22049     22051     22053     22052     22054     22056     22055     22057
     22059     22058     22060     22062     22061     22063     22065     22064     22066
     22068     22067     22069     22071     22070     22072     22074     22073     22075
     22077     22076     22078     22080     22079     22081     22083     22082     22084
     22086     22085     22087     22089     22088     22090     22092     22091     22093
     22095     22094     22096     22098     22097     22099     22101     22100     22102
     22104     22103     22105     22107     22106     22108     22110     22109     22111
     22113     22112     22114     22116     22115     22117     22119     22118     22120
     22122     22121     22123     22125     22124     22126     22128     22127     22129
     22131     22130     22132     22134     22133     22135     22137     22136     22138
     22140     22139     22141     22143     22142     22144     22146     22145     22147
     22149     22148     22150     22152     22151     22153     22155     22154     22156
     22158     22157     22159     22161     22160     22162     22164     22163     22165
     22167     22166     22168     22170     22169     22171     22173     22172     22174
     22176     22175     22177     22179     22178     22180     22182     22181     22183
     22185     22184     22186     22188     22187     22189     22191     22190     22192
     22194     22193     22195     22197     22196     22198     22200     22199     22201
     22203     22202     22204     22206     22205     22207     22209     22208     22210
     22212     22211     22213     22215     22214     22216     22218     22217     22219
     22221     22220     22222     22224     22223     22225     22227     22226     22228
     22230     22229     22231     22233     22232     22234     22236     22235     22237
     22239     22238     22240     22242     22241     22243     22245     22244     22246
     22248     22247     22249     22251     22250     22252     22254     22253     22255
     22257     22256     22258     22260     22259     22261     22263     22262     22264
     22266     22265     22267     22269     22268     22270     22272     22271     22273
     22275     22274     22276     22278     22277     22279     22281     22280     22282
     22284     22283     22285     22287     22286     22288     22290     22289     22291
     22293     22292     22294     22296     22295     22297     22299     22298     22300
     22302     22301     22303     22305     22304     22306     22308     22307     22309
     22311     22310     22312     22314     22313     22315     22317     22316     22318
     22320     22319     22321     22323     22322     22324     22326     22325     22327
     22329     22328     22330     22332     22331     22333     22335     22334     22336
     22338     22337     22339     22341     22340     22342     22344     22343     22345
     22347     22346     22348     22350     22349     22351     22353     22352     22354
     22356     22355     22357     22359     22358     22360     22362     22361     22363
     22365     22364     22366     22368     22367     22369     22371     22370     22372
     22374     22373     22375     22377     22376     22378     22380     22379     22381
     22383     22382     22384     22386     22385     22387     22389     22388     22390
     22392     22391     22393     22395     22394     22396     22398     22397     22399
     22401     22400     22402     22404     22403     22405     22407     22406     22408
     22410     22409     22411     22413     22412     22414     22416     22415     22417
     22419     22418     22420     22422     22421     22423     22425     22424     22426
     22428     22427     22429     22431     22430     22432     22434     22433     22435
     22437     22436     22438     22440     22439     22441     22443     22442     22444
     22446     22445     22447     22449     22448     22450     22452     22451     22453
     22455     22454     22456     22458     22457     22459     22461     22460     22462
     22464     22463     22465     22467     22466     22468     22470     22469     22471
     22473     22472     22474     22476     22475     22477     22479     22478     22480
     22482     22481     22483     22485     22484     22486     22488     22487     22489
     22491     22490     22492     22494     22493     22495     22497     22496     22498
     22500     22499     22501     22503     22502     22504     22506     22505     22507
     22509     22508     22510     22512     22511     22513     22515     22514     22516
     22518     22517     22519     22521     22520     22522     22524     22523     22525
     22527     22526     22528     22530     22529     22531     22533     22532     22534
     22536     22535     22537     22539     22538     22540     22542     22541     22543
     22545     22544     22546     22548     22547     22549     22551     22550     22552
     22554     22553     22555     22557     22556     22558     22560     22559     22561
     22563     22562     22564     22566     22565     22567     22569     22568     22570
     22572     22571     22573     22575     22574     22576     22578     22577     22579
     22581     22580     22582     22584     22583     22585     22587     22586     22588
     22590     22589     22591     22593     22592     22594     22596     22595     22597
     22599     22598     22600     22602     22601     22603     22605     22604     22606
     22608     22607     22609     22611     22610     22612     22614     22613     22615
     22617     22616     22618     22620     22619     22621     22623     22622     22624
     22626     22625     22627     22629     22628     22630     22632     22631     22633
     22635     22634     22636     22638     22637     22639     22641     22640     22642
     22644     22643     22645     22647     22646     22648     22650     22649     22651
     22653     22652     22654     22656     22655     22657     22659     22658     22660
     22662     22661     22663     22665     22664     22666     22668     22667     22669
     22671     22670     22672     22674     22673     22675     22677     22676     22678
     22680     22679     22681     22683     22682     22684     22686     22685     22687
     22689     22688     22690     22692     22691     22693     22695     22694     22696
     22698     22697     22699     22701     22700     22702     22704     22703     22705
     22707     22706     22708     22710     22709     22711     22713     22712     22714
     22716     22715     22717     22719     22718     22720     22722     22721     22723
     22725     22724     22726     22728     22727     22729     22731     22730     22732
     22734     22733     22735     22737     22736     22738     22740     22739     22741
     22743     22742     22744     22746     22745     22747     22749     22748     22750
     22752     22751     22753     22755     22754     22756     22758     22757     22759
     22761     22760     22762     22764     22763     22765     22767     22766     22768
     22770     22769     22771     22773     22772     22774     22776     22775     22777
     22779     22778     22780     22782     22781     22783     22785     22784     22786
     22788     22787     22789     22791     22790     22792     22794     22793     22795
     22797     22796     22798     22800     22799     22801     22803     22802     22804
     22806     22805     22807     22809     22808     22810     22812     22811     22813
     22815     22814     22816     22818     22817     22819     22821     22820     22822
     22824     22823     22825     22827     22826     22828     22830     22829     22831
     22833     22832     22834     22836     22835     22837     22839     22838     22840
     22842     22841     22843     22845     22844     22846     22848     22847     22849
     22851     22850     22852     22854     22853     22855     22857     22856     22858
     22860     22859     22861     22863     22862     22864     22866     22865     22867
     22869     22868     22870     22872     22871     22873     22875     22874     22876
     22878     22877     22879     22881     22880     22882     22884     22883     22885
     22887     22886     22888     22890     22889     22891     22893     22892     22894
     22896     22895     22897     22899     22898     22900     22902     22901     22903
     22905     22904     22906     22908     22907     22909     22911     22910     22912
     22914     22913     22915     22917     22916     22918     22920     22919     22921
     22923     22922     22924     22926     22925     22927     22929     22928     22930
     22932     22931     22933     22935     22934     22936     22938     22937     22939
     22941     22940     22942     22944     22943     22945     22947     22946     22948
     22950     22949     22951     22953     22952     22954     22956     22955     22957
     22959     22958     22960     22962     22961     22963     22965     22964     22966
     22968     22967     22969     22971     22970     22972     22974     22973     22975
     22977     22976     22978     22980     22979     22981     22983     22982     22984
     22986     22985     22987     22989     22988     22990     22992     22991     22993
     22995     22994     22996     22998     22997     22999     23001     23000     23002
     23004     23003     23005     23007     23006     23008     23010     23009     23011
     23013     23012     23014     23016     23015     23017     23019     23018     23020
     23022     23021     23023     23025     23024     23026     23028     23027     23029
     23031     23030     23032     23034     23033     23035     23037     23036     23038
     23040     23039     23041     23043     23042     23044     23046     23045     23047
     23049     23048     23050     23052     23051     23053     23055     23054     23056
     23058     23057     23059     23061     23060     23062     23064     23063     23065
     23067     23066     23068     23070     23069     23071     23073     23072     23074
     23076     23075     23077     23079     23078     23080     23082     23081     23083
     23085     23084     23086     23088     23087     23089     23091     23090     23092
     23094     23093     23095     23097     23096     23098     23100     23099     23101
     23103     23102     23104     23106     23105     23107     23109     23108     23110
     23112     23111     23113     23115     23114     23116     23118     23117     23119
     23121     23120     23122     23124     23123     23125     23127     23126     23128
     23130     23129     23131     23133     23132     23134     23136     23135     23137
     23139     23138     23140     23142     23141     23143     23145     23144     23146
     23148     23147     23149     23151     23150     23152     23154     23153     23155
     23157     23156     23158     23160     23159     23161     23163     23162     23164
     23166     23165     23167     23169     23168     23170     23172     23171     23173
     23175     23174     23176     23178     23177     23179     23181     23180     23182
     23184     23183     23185     23187     23186     23188     23190     23189     23191
     23193     23192     23194     23196     23195     23197     23199     23198     23200
     23202     23201     23203     23205     23204     23206     23208     23207     23209
     23211     23210     23212     23214     23213     23215     23217     23216     23218
     23220     23219     23221     23223     23222     23224     23226     23225     23227
     23229     23228     23230     23232     23231     23233     23235     23234     23236
     23238     23237     23239     23241     23240     23242     23244     23243     23245
     23247     23246     23248     23250     23249     23251     23253     23252     23254
     23256     23255     23257     23259     23258     23260     23262     23261     23263
     23265     23264     23266     23268     23267     23269     23271     23270     23272
     23274     23273     23275     23277     23276     23278     23280     23279     23281
     23283     23282     23284     23286     23285     23287     23289     23288     23290
     23292     23291     23293     23295     23294     23296     23298     23297     23299
     23301     23300     23302     23304     23303     23305     23307     23306     23308
     23310     23309     23311     23313     23312     23314     23316     23315     23317
     23319     23318     23320     23322     23321     23323     23325     23324     23326
     23328     23327     23329     23331     23330     23332     23334     23333     23335
     23337     23336     23338     23340     23339     23341     23343     23342     23344
     23346     23345     23347     23349     23348     23350     23352     23351     23353
     23355     23354     23356     23358     23357     23359     23361     23360     23362
     23364     23363     23365     23367     23366     23368     23370     23369     23371
     23373     23372     23374     23376     23375     23377     23379     23378     23380
     23382     23381     23383     23385     23384     23386     23388     23387     23389
     23391     23390     23392     23394     23393     23395     23397     23396     23398
     23400     23399     23401     23403     23402     23404     23406     23405     23407
     23409     23408     23410     23412     23411     23413     23415     23414     23416
     23418     23417     23419     23421     23420     23422     23424     23423     23425
     23427     23426     23428     23430     23429     23431     23433     23432     23434
     23436     23435     23437     23439     23438     23440     23442     23441     23443
     23445     23444     23446     23448     23447     23449     23451     23450     23452
     23454     23453     23455     23457     23456     23458     23460     23459     23461
     23463     23462     23464     23466     23465     23467     23469     23468     23470
     23472     23471     23473     23475     23474     23476     23478     23477     23479
     23481     23480     23482     23484     23483     23485     23487     23486     23488
     23490     23489     23491     23493     23492     23494     23496     23495     23497
     23499     23498     23500     23502     23501     23503     23505     23504     23506
     23508     23507     23509     23511     23510     23512     23514     23513     23515
     23517     23516     23518     23520     23519     23521     23523     23522     23524
     23526     23525     23527     23529     23528     23530     23532     23531     23533
     23535     23534     23536     23538     23537     23539     23541     23540     23542
     23544     23543     23545     23547     23546     23548     23550     23549     23551
     23553     23552     23554     23556     23555     23557     23559     23558     23560
     23562     23561     23563     23565     23564     23566     23568     23567     23569
     23571     23570     23572     23574     23573     23575     23577     23576     23578
     23580     23579     23581     23583     23582     23584     23586     23585     23587
     23589     23588     23590     23592     23591     23593     23595     23594     23596
     23598     23597     23599     23601     23600     23602     23604     23603     23605
     23607     23606     23608     23610     23609     23611     23613     23612     23614
     23616     23615     23617     23619     23618     23620     23622     23621     23623
     23625     23624     23626     23628     23627     23629     23631     23630     23632
     23634     23633     23635     23637     23636     23638     23640     23639     23641
     23643     23642     23644     23646     23645     23647     23649     23648     23650
     23652     23651     23653     23655     23654     23656     23658     23657     23659
     23661     23660     23662     23664     23663     23665     23667     23666     23668
     23670     23669     23671     23673     23672     23674     23676     23675     23677
     23679     23678     23680     23682     23681     23683     23685     23684     23686
     23688     23687     23689     23691     23690     23692     23694     23693     23695
     23697     23696     23698     23700     23699     23701     23703     23702     23704
     23706     23705     23707     23709     23708     23710     23712     23711     23713
     23715     23714     23716     23718     23717     23719     23721     23720     23722
     23724     23723     23725     23727     23726     23728     23730     23729     23731
     23733     23732     23734     23736     23735     23737     23739     23738     23740
     23742     23741     23743     23745     23744     23746     23748     23747     23749
     23751     23750     23752     23754     23753     23755     23757     23756     23758
     23760     23759     23761     23763     23762     23764     23766     23765     23767
     23769     23768     23770     23772     23771     23773     23775     23774     23776
     23778     23777     23779     23781     23780     23782     23784     23783     23785
     23787     23786     23788     23790     23789     23791     23793     23792     23794
     23796     23795     23797     23799     23798     23800     23802     23801     23803
     23805     23804     23806     23808     23807     23809     23811     23810     23812
     23814     23813     23815     23817     23816     23818     23820     23819     23821
     23823     23822     23824     23826     23825     23827     23829     23828     23830
     23832     23831     23833     23835     23834     23836     23838     23837     23839
     23841     23840     23842     23844     23843     23845     23847     23846     23848
     23850     23849     23851     23853     23852     23854     23856     23855     23857
     23859     23858     23860     23862     23861     23863     23865     23864     23866
     23868     23867     23869     23871     23870     23872     23874     23873     23875
     23877     23876     23878     23880     23879     23881     23883     23882     23884
     23886     23885     23887     23889     23888     23890     23892     23891     23893
     23895     23894     23896     23898     23897     23899     23901     23900     23902
     23904     23903     23905     23907     23906     23908     23910     23909     23911
     23913     23912     23914     23916     23915     23917     23919     23918     23920
     23922     23921     23923     23925     23924     23926     23928     23927     23929
     23931     23930     23932     23934     23933     23935     23937     23936     23938
     23940     23939     23941     23943     23942     23944     23946     23945     23947
     23949     23948     23950     23952     23951     23953     23955     23954     23956
     23958     23957     23959     23961     23960     23962     23964     23963     23965
     23967     23966     23968     23970     23969     23971     23973     23972     23974
     23976     23975     23977     23979     23978     23980     23982     23981     23983
     23985     23984     23986     23988     23987     23989     23991     23990     23992
     23994     23993     23995     23997     23996     23998     24000     23999     24001
     24003     24002     24004     24006     24005     24007     24009     24008     24010
     24012     24011     24013     24015     24014     24016     24018     24017     24019
     24021     24020     24022     24024     24023     24025     24027     24026     24028
     24030     24029     24031     24033     24032     24034     24036     24035     24037
     24039     24038     24040     24042     24041     24043     24045     24044     24046
     24048     24047     24049     24051     24050     24052     24054     24053     24055
     24057     24056     24058     24060     24059     24061     24063     24062     24064
     24066     24065     24067     24069     24068     24070     24072     24071     24073
     24075     24074     24076     24078     24077     24079     24081     24080     24082
     24084     24083     24085     24087     24086     24088     24090     24089     24091
     24093     24092     24094     24096     24095     24097     24099     24098     24100
     24102     24101     24103     24105     24104     24106     24108     24107     24109
     24111     24110     24112     24114     24113     24115     24117     24116     24118
     24120     24119     24121     24123     24122     24124     24126     24125     24127
     24129     24128     24130     24132     24131     24133     24135     24134     24136
     24138     24137     24139     24141     24140     24142     24144     24143     24145
     24147     24146     24148     24150     24149     24151     24153     24152     24154
     24156     24155     24157     24159     24158     24160     24162     24161     24163
     24165     24164     24166     24168     24167     24169     24171     24170     24172
     24174     24173     24175     24177     24176     24178     24180     24179     24181
     24183     24182     24184     24186     24185     24187     24189     24188     24190
     24192     24191     24193     24195     24194     24196     24198     24197     24199
     24201     24200     24202     24204     24203     24205     24207     24206     24208
     24210     24209     24211     24213     24212     24214     24216     24215     24217
     24219     24218     24220     24222     24221     24223     24225     24224     24226
     24228     24227     24229     24231     24230     24232     24234     24233     24235
     24237     24236     24238     24240     24239     24241     24243     24242     24244
     24246     24245     24247     24249     24248     24250     24252     24251     24253
     24255     24254     24256     24258     24257     24259     24261     24260     24262
     24264     24263     24265     24267     24266     24268     24270     24269     24271
     24273     24272     24274     24276     24275     24277     24279     24278     24280
     24282     24281     24283     24285     24284     24286     24288     24287     24289
     24291     24290     24292     24294     24293     24295     24297     24296     24298
     24300     24299     24301     24303     24302     24304     24306     24305     24307
     24309     24308     24310     24312     24311     24313     24315     24314     24316
     24318     24317     24319     24321     24320     24322     24324     24323     24325
     24327     24326     24328     24330     24329     24331     24333     24332     24334
     24336     24335     24337     24339     24338     24340     24342     24341     24343
     24345     24344     24346     24348     24347     24349     24351     24350     24352
     24354     24353     24355     24357     24356     24358     24360     24359     24361
     24363     24362     24364     24366     24365     24367     24369     24368     24370
     24372     24371     24373     24375     24374     24376     24378     24377     24379
     24381     24380     24382     24384     24383     24385     24387     24386     24388
     24390     24389     24391     24393     24392     24394     24396     24395     24397
     24399     24398     24400     24402     24401     24403     24405     24404     24406
     24408     24407     24409     24411     24410     24412     24414     24413     24415
     24417     24416     24418     24420     24419     24421     24423     24422     24424
     24426     24425     24427     24429     24428     24430     24432     24431     24433
     24435     24434     24436     24438     24437     24439     24441     24440     24442
     24444     24443     24445     24447     24446     24448     24450     24449     24451
     24453     24452     24454     24456     24455     24457     24459     24458     24460
     24462     24461     24463     24465     24464     24466     24468     24467     24469
     24471     24470     24472     24474     24473     24475     24477     24476     24478
     24480     24479     24481     24483     24482     24484     24486     24485     24487
     24489     24488     24490     24492     24491     24493     24495     24494     24496
     24498     24497     24499     24501     24500     24502     24504     24503     24505
     24507     24506     24508     24510     24509     24511     24513     24512     24514
     24516     24515     24517     24519     24518     24520     24522     24521     24523
     24525     24524     24526     24528     24527     24529     24531     24530     24532
     24534     24533     24535     24537     24536     24538     24540     24539     24541
     24543     24542     24544     24546     24545     24547     24549     24548     24550
     24552     24551     24553     24555     24554     24556     24558     24557     24559
     24561     24560     24562     24564     24563     24565     24567     24566     24568
     24570     24569     24571     24573     24572     24574     24576     24575     24577
     24579     24578     24580     24582     24581     24583     24585     24584     24586
     24588     24587     24589     24591     24590     24592     24594     24593     24595
     24597     24596     24598     24600     24599     24601     24603     24602     24604
     24606     24605     24607     24609     24608     24610     24612     24611     24613
     24615     24614     24616     24618     24617     24619     24621     24620     24622
     24624     24623     24625     24627     24626     24628     24630     24629     24631
     24633     24632     24634     24636     24635     24637     24639     24638     24640
     24642     24641     24643     24645     24644     24646     24648     24647     24649
     24651     24650     24652     24654     24653     24655     24657     24656     24658
     24660     24659     24661     24663     24662     24664     24666     24665     24667
     24669     24668     24670     24672     24671     24673     24675     24674     24676
     24678     24677     24679     24681     24680     24682     24684     24683     24685
     24687     24686     24688     24690     24689     24691     24693     24692     24694
     24696     24695     24697     24699     24698     24700     24702     24701     24703
     24705     24704     24706     24708     24707     24709     24711     24710     24712
     24714     24713     24715     24717     24716     24718     24720     24719     24721
     24723     24722     24724     24726     24725     24727     24729     24728     24730
     24732     24731     24733     24735     24734     24736     24738     24737     24739
     24741     24740     24742     24744     24743     24745     24747     24746     24748
     24750     24749     24751     24753     24752     24754     24756     24755     24757
     24759     24758     24760     24762     24761     24763     24765     24764     24766
     24768     24767     24769     24771     24770     24772     24774     24773     24775
     24777     24776     24778     24780     24779     24781     24783     24782     24784
     24786     24785     24787     24789     24788     24790     24792     24791     24793
     24795     24794     24796     24798     24797     24799     24801     24800     24802
     24804     24803     24805     24807     24806     24808     24810     24809     24811
     24813     24812     24814     24816     24815     24817     24819     24818     24820
     24822     24821     24823     24825     24824     24826     24828     24827     24829
     24831     24830     24832     24834     24833     24835     24837     24836     24838
     24840     24839     24841     24843     24842     24844     24846     24845     24847
     24849     24848     24850     24852     24851     24853     24855     24854     24856
     24858     24857     24859     24861     24860     24862     24864     24863     24865
     24867     24866     24868     24870     24869     24871     24873     24872     24874
     24876     24875     24877     24879     24878     24880     24882     24881     24883
     24885     24884     24886     24888     24887     24889     24891     24890     24892
     24894     24893     24895     24897     24896     24898     24900     24899     24901
     24903     24902     24904     24906     24905     24907     24909     24908     24910
     24912     24911     24913     24915     24914     24916     24918     24917     24919
     24921     24920     24922     24924     24923     24925     24927     24926     24928
     24930     24929     24931     24933     24932     24934     24936     24935     24937
     24939     24938     24940     24942     24941     24943     24945     24944     24946
     24948     24947     24949     24951     24950     24952     24954     24953     24955
     24957     24956     24958     24960     24959     24961     24963     24962     24964
     24966     24965     24967     24969     24968     24970     24972     24971     24973
     24975     24974     24976     24978     24977     24979     24981     24980     24982
     24984     24983     24985     24987     24986     24988     24990     24989     24991
     24993     24992     24994     24996     24995     24997     24999     24998     25000
     25002     25001     25003     25005     25004     25006     25008     25007     25009
     25011     25010     25012     25014     25013     25015     25017     25016     25018
     25020     25019     25021     25023     25022     25024     25026     25025     25027
     25029     25028     25030     25032     25031     25033     25035     25034     25036
     25038     25037     25039     25041     25040     25042     25044     25043     25045
     25047     25046     25048     25050     25049     25051     25053     25052     25054
     25056     25055     25057     25059     25058     25060     25062     25061     25063
     25065     25064     25066     25068     25067     25069     25071     25070     25072
     25074     25073     25075     25077     25076     25078     25080     25079     25081
     25083     25082     25084     25086     25085     25087     25089     25088     25090
     25092     25091     25093     25095     25094     25096     25098     25097     25099
     25101     25100     25102     25104     25103     25105     25107     25106     25108
     25110     25109     25111     25113     25112     25114     25116     25115     25117
     25119     25118     25120     25122     25121     25123     25125     25124     25126
     25128     25127     25129     25131     25130     25132     25134     25133     25135
     25137     25136     25138     25140     25139     25141     25143     25142     25144
     25146     25145     25147     25149     25148     25150     25152     25151     25153
     25155     25154     25156     25158     25157     25159     25161     25160     25162
     25164     25163     25165     25167     25166     25168     25170     25169     25171
     25173     25172     25174     25176     25175     25177     25179     25178     25180
     25182     25181     25183     25185     25184     25186     25188     25187     25189
     25191     25190     25192     25194     25193     25195     25197     25196     25198
     25200     25199     25201     25203     25202     25204     25206     25205     25207
     25209     25208     25210     25212     25211     25213     25215     25214     25216
     25218     25217     25219     25221     25220     25222     25224     25223     25225
     25227     25226     25228     25230     25229     25231     25233     25232     25234
     25236     25235     25237     25239     25238     25240     25242     25241     25243
     25245     25244     25246     25248     25247     25249     25251     25250     25252
     25254     25253     25255     25257     25256     25258     25260     25259     25261
     25263     25262     25264     25266     25265     25267     25269     25268     25270
     25272     25271     25273     25275     25274     25276     25278     25277     25279
     25281     25280     25282     25284     25283     25285     25287     25286     25288
     25290     25289     25291     25293     25292     25294     25296     25295     25297
     25299     25298     25300     25302     25301     25303     25305     25304     25306
     25308     25307     25309     25311     25310     25312     25314     25313     25315
     25317     25316     25318     25320     25319     25321     25323     25322     25324
     25326     25325     25327     25329     25328     25330     25332     25331     25333
     25335     25334     25336     25338     25337     25339     25341     25340     25342
     25344     25343     25345     25347     25346     25348     25350     25349     25351
     25353     25352     25354     25356     25355     25357     25359     25358     25360
     25362     25361     25363     25365     25364     25366     25368     25367     25369
     25371     25370     25372     25374     25373     25375     25377     25376     25378
     25380     25379     25381     25383     25382     25384     25386     25385     25387
     25389     25388     25390     25392     25391     25393     25395     25394     25396
     25398     25397     25399     25401     25400     25402     25404     25403     25405
     25407     25406     25408     25410     25409     25411     25413     25412     25414
     25416     25415     25417     25419     25418     25420     25422     25421     25423
     25425     25424     25426     25428     25427     25429     25431     25430     25432
     25434     25433     25435     25437     25436     25438     25440     25439     25441
     25443     25442     25444     25446     25445     25447     25449     25448     25450
     25452     25451     25453     25455     25454     25456     25458     25457     25459
     25461     25460     25462     25464     25463     25465     25467     25466     25468
     25470     25469     25471     25473     25472     25474     25476     25475     25477
     25479     25478     25480     25482     25481     25483     25485     25484     25486
     25488     25487     25489     25491     25490     25492     25494     25493     25495
     25497     25496     25498     25500     25499     25501     25503     25502     25504
     25506     25505     25507     25509     25508     25510     25512     25511     25513
     25515     25514     25516     25518     25517     25519     25521     25520     25522
     25524     25523     25525     25527     25526     25528     25530     25529     25531
     25533     25532     25534     25536     25535     25537     25539     25538     25540
     25542     25541     25543     25545     25544     25546     25548     25547     25549
     25551     25550     25552     25554     25553     25555     25557     25556     25558
     25560     25559     25561     25563     25562     25564     25566     25565     25567
     25569     25568     25570     25572     25571     25573     25575     25574     25576
     25578     25577     25579     25581     25580     25582     25584     25583     25585
     25587     25586     25588     25590     25589     25591     25593     25592     25594
     25596     25595     25597     25599     25598     25600     25602     25601     25603
     25605     25604     25606     25608     25607     25609     25611     25610     25612
     25614     25613     25615     25617     25616     25618     25620     25619     25621
     25623     25622     25624     25626     25625     25627     25629     25628     25630
     25632     25631     25633     25635     25634     25636     25638     25637     25639
     25641     25640     25642     25644     25643     25645     25647     25646     25648
     25650     25649     25651     25653     25652     25654     25656     25655     25657
     25659     25658     25660     25662     25661     25663     25665     25664     25666
     25668     25667     25669     25671     25670     25672     25674     25673     25675
     25677     25676     25678     25680     25679     25681     25683     25682     25684
     25686     25685     25687     25689     25688     25690     25692     25691     25693
     25695     25694     25696     25698     25697     25699     25701     25700     25702
     25704     25703     25705     25707     25706     25708     25710     25709     25711
     25713     25712     25714     25716     25715     25717     25719     25718     25720
     25722     25721     25723     25725     25724     25726     25728     25727     25729
     25731     25730     25732     25734     25733     25735     25737     25736     25738
     25740     25739     25741     25743     25742     25744     25746     25745     25747
     25749     25748     25750     25752     25751     25753     25755     25754     25756
     25758     25757     25759     25761     25760     25762     25764     25763     25765
     25767     25766     25768     25770     25769     25771     25773     25772     25774
     25776     25775     25777     25779     25778     25780     25782     25781     25783
     25785     25784     25786     25788     25787     25789     25791     25790     25792
     25794     25793     25795     25797     25796     25798     25800     25799     25801
     25803     25802     25804     25806     25805     25807     25809     25808     25810
     25812     25811     25813     25815     25814     25816     25818     25817     25819
     25821     25820     25822     25824     25823     25825     25827     25826     25828
     25830     25829     25831     25833     25832     25834     25836     25835     25837
     25839     25838     25840     25842     25841     25843     25845     25844     25846
     25848     25847     25849     25851     25850     25852     25854     25853     25855
     25857     25856     25858     25860     25859     25861     25863     25862     25864
     25866     25865     25867     25869     25868     25870     25872     25871     25873
     25875     25874     25876     25878     25877     25879     25881     25880     25882
     25884     25883     25885     25887     25886     25888     25890     25889     25891
     25893     25892     25894     25896     25895     25897     25899     25898     25900
     25902     25901     25903     25905     25904     25906     25908     25907     25909
     25911     25910     25912     25914     25913     25915     25917     25916     25918
     25920     25919     25921     25923     25922     25924     25926     25925     25927
     25929     25928     25930     25932     25931     25933     25935     25934     25936
     25938     25937     25939     25941     25940     25942     25944     25943     25945
     25947     25946     25948     25950     25949     25951     25953     25952     25954
     25956     25955     25957     25959     25958     25960     25962     25961     25963
     25965     25964     25966     25968     25967     25969     25971     25970     25972
     25974     25973     25975     25977     25976     25978     25980     25979     25981
     25983     25982     25984     25986     25985     25987     25989     25988     25990
     25992     25991     25993     25995     25994     25996     25998     25997     25999
     26001     26000     26002     26004     26003     26005     26007     26006     26008
     26010     26009     26011     26013     26012     26014     26016     26015     26017
     26019     26018     26020     26022     26021     26023     26025     26024     26026
     26028     26027     26029     26031     26030     26032     26034     26033     26035
     26037     26036     26038     26040     26039     26041     26043     26042     26044
     26046     26045     26047     26049     26048     26050     26052     26051     26053
     26055     26054     26056     26058     26057     26059     26061     26060     26062
     26064     26063     26065     26067     26066     26068     26070     26069     26071
     26073     26072     26074     26076     26075     26077     26079     26078     26080
     26082     26081     26083     26085     26084     26086     26088     26087     26089
     26091     26090     26092     26094     26093     26095     26097     26096     26098
     26100     26099     26101     26103     26102     26104     26106     26105     26107
     26109     26108     26110     26112     26111     26113     26115     26114     26116
     26118     26117     26119     26121     26120     26122     26124     26123     26125
     26127     26126     26128     26130     26129     26131     26133     26132     26134
     26136     26135     26137     26139     26138     26140     26142     26141     26143
     26145     26144     26146     26148     26147     26149     26151     26150     26152
     26154     26153     26155     26157     26156     26158     26160     26159     26161
     26163     26162     26164     26166     26165     26167     26169     26168     26170
     26172     26171     26173     26175     26174     26176     26178     26177     26179
     26181     26180     26182     26184     26183     26185     26187     26186     26188
     26190     26189     26191     26193     26192     26194     26196     26195     26197
     26199     26198     26200     26202     26201     26203     26205     26204     26206
     26208     26207     26209     26211     26210     26212     26214     26213     26215
     26217     26216     26218     26220     26219     26221     26223     26222     26224
     26226     26225     26227     26229     26228     26230     26232     26231     26233
     26235     26234     26236     26238     26237     26239     26241     26240     26242
     26244     26243     26245     26247     26246     26248     26250     26249     26251
     26253     26252     26254     26256     26255     26257     26259     26258     26260
     26262     26261     26263     26265     26264     26266     26268     26267     26269
     26271     26270     26272     26274     26273     26275     26277     26276     26278
     26280     26279     26281     26283     26282     26284     26286     26285     26287
     26289     26288     26290     26292     26291     26293     26295     26294     26296
     26298     26297     26299     26301     26300     26302     26304     26303     26305
     26307     26306     26308     26310     26309     26311     26313     26312     26314
     26316     26315     26317     26319     26318     26320     26322     26321     26323
     26325     26324     26326     26328     26327     26329     26331     26330     26332
     26334     26333     26335     26337     26336     26338     26340     26339     26341
     26343     26342     26344     26346     26345     26347     26349     26348     26350
     26352     26351     26353     26355     26354     26356     26358     26357     26359
     26361     26360     26362     26364     26363     26365     26367     26366     26368
     26370     26369     26371     26373     26372     26374     26376     26375     26377
     26379     26378     26380     26382     26381     26383     26385     26384     26386
     26388     26387     26389     26391     26390     26392     26394     26393     26395
     26397     26396     26398     26400     26399     26401     26403     26402     26404
     26406     26405     26407     26409     26408     26410     26412     26411     26413
     26415     26414     26416     26418     26417     26419     26421     26420     26422
     26424     26423     26425     26427     26426     26428     26430     26429     26431
     26433     26432     26434     26436     26435     26437     26439     26438     26440
     26442     26441     26443     26445     26444     26446     26448     26447     26449
     26451     26450     26452     26454     26453     26455     26457     26456     26458
     26460     26459     26461     26463     26462     26464     26466     26465     26467
     26469     26468     26470     26472     26471     26473     26475     26474     26476
     26478     26477     26479     26481     26480     26482     26484     26483     26485
     26487     26486     26488     26490     26489     26491     26493     26492     26494
     26496     26495     26497     26499     26498     26500     26502     26501     26503
     26505     26504     26506     26508     26507     26509     26511     26510     26512
     26514     26513     26515     26517     26516     26518     26520     26519     26521
     26523     26522     26524     26526     26525     26527     26529     26528     26530
     26532     26531     26533     26535     26534     26536     26538     26537     26539
     26541     26540     26542     26544     26543     26545     26547     26546     26548
     26550     26549     26551     26553     26552     26554     26556     26555     26557
     26559     26558     26560     26562     26561     26563     26565     26564     26566
     26568     26567     26569     26571     26570     26572     26574     26573     26575
     26577     26576     26578     26580     26579     26581     26583     26582     26584
     26586     26585     26587     26589     26588     26590     26592     26591     26593
     26595     26594     26596     26598     26597     26599     26601     26600     26602
     26604     26603     26605     26607     26606     26608     26610     26609     26611
     26613     26612     26614     26616     26615     26617     26619     26618     26620
     26622     26621     26623     26625     26624     26626     26628     26627     26629
     26631     26630     26632     26634     26633     26635     26637     26636     26638
     26640     26639     26641     26643     26642     26644     26646     26645     26647
     26649     26648     26650     26652     26651     26653     26655     26654     26656
     26658     26657     26659     26661     26660     26662     26664     26663     26665
     26667     26666     26668     26670     26669     26671     26673     26672     26674
     26676     26675     26677     26679     26678     26680     26682     26681     26683
     26685     26684     26686     26688     26687     26689     26691     26690     26692
     26694     26693     26695     26697     26696     26698     26700     26699     26701
     26703     26702     26704     26706     26705     26707     26709     26708     26710
     26712     26711     26713     26715     26714     26716     26718     26717     26719
     26721     26720     26722     26724     26723     26725     26727     26726     26728
     26730     26729     26731     26733     26732     26734     26736     26735     26737
     26739     26738     26740     26742     26741     26743     26745     26744     26746
     26748     26747     26749     26751     26750     26752     26754     26753     26755
     26757     26756     26758     26760     26759     26761     26763     26762     26764
     26766     26765     26767     26769     26768     26770     26772     26771     26773
     26775     26774     26776     26778     26777     26779     26781     26780     26782
     26784     26783     26785     26787     26786     26788     26790     26789     26791
     26793     26792     26794     26796     26795     26797     26799     26798     26800
     26802     26801     26803     26805     26804     26806     26808     26807     26809
     26811     26810     26812     26814     26813     26815     26817     26816     26818
     26820     26819     26821     26823     26822     26824     26826     26825     26827
     26829     26828     26830     26832     26831     26833     26835     26834     26836
     26838     26837     26839     26841     26840     26842     26844     26843     26845
     26847     26846     26848     26850     26849     26851     26853     26852     26854
     26856     26855     26857     26859     26858     26860     26862     26861     26863
     26865     26864     26866     26868     26867     26869     26871     26870     26872
     26874     26873     26875     26877     26876     26878     26880     26879     26881
     26883     26882     26884     26886     26885     26887     26889     26888     26890
     26892     26891     26893     26895     26894     26896     26898     26897     26899
     26901     26900     26902     26904     26903     26905     26907     26906     26908
     26910     26909     26911     26913     26912     26914     26916     26915     26917
     26919     26918     26920     26922     26921     26923     26925     26924     26926
     26928     26927     26929     26931     26930     26932     26934     26933     26935
     26937     26936     26938     26940     26939     26941     26943     26942     26944
     26946     26945     26947     26949     26948     26950     26952     26951     26953
     26955     26954     26956     26958     26957     26959     26961     26960     26962
     26964     26963     26965     26967     26966     26968     26970     26969     26971
     26973     26972     26974     26976     26975     26977     26979     26978     26980
     26982     26981     26983     26985     26984     26986     26988     26987     26989
     26991     26990     26992     26994     26993     26995     26997     26996     26998
     27000     26999     27001     27003     27002     27004     27006     27005     27007
     27009     27008     27010     27012     27011     27013     27015     27014     27016
     27018     27017     27019     27021     27020     27022     27024     27023     27025
     27027     27026     27028     27030     27029     27031     27033     27032     27034
     27036     27035     27037     27039     27038     27040     27042     27041     27043
     27045     27044     27046     27048     27047     27049     27051     27050     27052
     27054     27053     27055     27057     27056     27058     27060     27059     27061
     27063     27062     27064     27066     27065     27067     27069     27068     27070
     27072     27071     27073     27075     27074     27076     27078     27077     27079
     27081     27080     27082     27084     27083     27085     27087     27086     27088
     27090     27089     27091     27093     27092     27094     27096     27095     27097
     27099     27098     27100     27102     27101     27103     27105     27104     27106
     27108     27107     27109     27111     27110     27112     27114     27113     27115
     27117     27116     27118     27120     27119     27121     27123     27122     27124
     27126     27125     27127     27129     27128     27130     27132     27131     27133
     27135     27134     27136     27138     27137     27139     27141     27140     27142
     27144     27143     27145     27147     27146     27148     27150     27149     27151
     27153     27152     27154     27156     27155     27157     27159     27158     27160
     27162     27161     27163     27165     27164     27166     27168     27167     27169
     27171     27170     27172     27174     27173     27175     27177     27176     27178
     27180     27179     27181     27183     27182     27184     27186     27185     27187
     27189     27188     27190     27192     27191     27193     27195     27194     27196
     27198     27197     27199     27201     27200     27202     27204     27203     27205
     27207     27206     27208     27210     27209     27211     27213     27212     27214
     27216     27215     27217     27219     27218     27220     27222     27221     27223
     27225     27224     27226     27228     27227     27229     27231     27230     27232
     27234     27233     27235     27237     27236     27238     27240     27239     27241
     27243     27242     27244     27246     27245     27247     27249     27248     27250
     27252     27251     27253     27255     27254     27256     27258     27257     27259
     27261     27260     27262     27264     27263     27265     27267     27266     27268
     27270     27269     27271     27273     27272     27274     27276     27275     27277
     27279     27278     27280     27282     27281     27283     27285     27284     27286
     27288     27287     27289     27291     27290     27292     27294     27293     27295
     27297     27296     27298     27300     27299     27301     27303     27302     27304
     27306     27305     27307     27309     27308     27310     27312     27311     27313
     27315     27314     27316     27318     27317     27319     27321     27320     27322
     27324     27323     27325     27327     27326     27328     27330     27329     27331
     27333     27332     27334     27336     27335     27337     27339     27338     27340
     27342     27341     27343     27345     27344     27346     27348     27347     27349
     27351     27350     27352     27354     27353     27355     27357     27356     27358
     27360     27359     27361     27363     27362     27364     27366     27365     27367
     27369     27368     27370     27372     27371     27373     27375     27374     27376
     27378     27377     27379     27381     27380     27382     27384     27383     27385
     27387     27386     27388     27390     27389     27391     27393     27392     27394
     27396     27395     27397     27399     27398     27400     27402     27401     27403
     27405     27404     27406     27408     27407     27409     27411     27410     27412
     27414     27413     27415     27417     27416     27418     27420     27419     27421
     27423     27422     27424     27426     27425     27427     27429     27428     27430
     27432     27431     27433     27435     27434     27436     27438     27437     27439
     27441     27440     27442     27444     27443     27445     27447     27446     27448
     27450     27449     27451     27453     27452     27454     27456     27455     27457
     27459     27458     27460     27462     27461     27463     27465     27464     27466
     27468     27467     27469     27471     27470     27472     27474     27473     27475
     27477     27476     27478     27480     27479     27481     27483     27482     27484
     27486     27485     27487     27489     27488     27490     27492     27491     27493
     27495     27494     27496     27498     27497     27499     27501     27500     27502
     27504     27503     27505     27507     27506     27508     27510     27509     27511
     27513     27512     27514     27516     27515     27517     27519     27518     27520
     27522     27521     27523     27525     27524     27526     27528     27527     27529
     27531     27530     27532     27534     27533     27535     27537     27536     27538
     27540     27539     27541     27543     27542     27544     27546     27545     27547
     27549     27548     27550     27552     27551     27553     27555     27554     27556
     27558     27557     27559     27561     27560     27562     27564     27563     27565
     27567     27566     27568     27570     27569     27571     27573     27572     27574
     27576     27575     27577     27579     27578     27580     27582     27581     27583
     27585     27584     27586     27588     27587     27589     27591     27590     27592
     27594     27593     27595     27597     27596     27598     27600     27599     27601
     27603     27602     27604     27606     27605     27607     27609     27608     27610
     27612     27611     27613     27615     27614     27616     27618     27617     27619
     27621     27620     27622     27624     27623     27625     27627     27626     27628
     27630     27629     27631     27633     27632     27634     27636     27635     27637
     27639     27638     27640     27642     27641     27643     27645     27644     27646
     27648     27647     27649     27651     27650     27652     27654     27653     27655
     27657     27656     27658     27660     27659     27661     27663     27662     27664
     27666     27665     27667     27669     27668     27670     27672     27671     27673
     27675     27674     27676     27678     27677     27679     27681     27680     27682
     27684     27683     27685     27687     27686     27688     27690     27689     27691
     27693     27692     27694     27696     27695     27697     27699     27698     27700
     27702     27701     27703     27705     27704     27706     27708     27707     27709
     27711     27710     27712     27714     27713     27715     27717     27716     27718
     27720     27719     27721     27723     27722     27724     27726     27725     27727
     27729     27728     27730     27732     27731     27733     27735     27734     27736
     27738     27737     27739     27741     27740     27742     27744     27743     27745
     27747     27746     27748     27750     27749     27751     27753     27752     27754
     27756     27755     27757     27759     27758     27760     27762     27761     27763
     27765     27764     27766     27768     27767     27769     27771     27770     27772
     27774     27773     27775     27777     27776     27778     27780     27779     27781
     27783     27782     27784     27786     27785     27787     27789     27788     27790
     27792     27791     27793     27795     27794     27796     27798     27797     27799
     27801     27800     27802     27804     27803     27805     27807     27806     27808
     27810     27809     27811     27813     27812     27814     27816     27815     27817
     27819     27818     27820     27822     27821     27823     27825     27824     27826
     27828     27827     27829     27831     27830     27832     27834     27833     27835
     27837     27836     27838     27840     27839     27841     27843     27842     27844
     27846     27845     27847     27849     27848     27850     27852     27851     27853
     27855     27854     27856     27858     27857     27859     27861     27860     27862
     27864     27863     27865     27867     27866     27868     27870     27869     27871
     27873     27872     27874     27876     27875     27877     27879     27878     27880
     27882     27881     27883     27885     27884     27886     27888     27887     27889
     27891     27890     27892     27894     27893     27895     27897     27896     27898
     27900     27899     27901     27903     27902     27904     27906     27905     27907
     27909     27908     27910     27912     27911     27913     27915     27914     27916
     27918     27917     27919     27921     27920     27922     27924     27923     27925
     27927     27926     27928     27930     27929     27931     27933     27932     27934
     27936     27935     27937     27939     27938     27940     27942     27941     27943
     27945     27944     27946     27948     27947     27949     27951     27950     27952
     27954     27953     27955     27957     27956     27958     27960     27959     27961
     27963     27962     27964     27966     27965     27967     27969     27968     27970
     27972     27971     27973     27975     27974     27976     27978     27977     27979
     27981     27980     27982     27984     27983     27985     27987     27986     27988
     27990     27989     27991     27993     27992     27994     27996     27995     27997
     27999     27998     28000     28002     28001     28003     28005     28004     28006
     28008     28007     28009     28011     28010     28012     28014     28013     28015
     28017     28016     28018     28020     28019     28021     28023     28022     28024
     28026     28025     28027     28029     28028     28030     28032     28031     28033
     28035     28034     28036     28038     28037     28039     28041     28040     28042
     28044     28043     28045     28047     28046     28048     28050     28049     28051
     28053     28052     28054     28056     28055     28057     28059     28058     28060
     28062     28061     28063     28065     28064     28066     28068     28067     28069
     28071     28070     28072     28074     28073     28075     28077     28076     28078
     28080     28079     28081     28083     28082     28084     28086     28085     28087
     28089     28088     28090     28092     28091     28093     28095     28094     28096
     28098     28097     28099     28101     28100     28102     28104     28103     28105
     28107     28106     28108     28110     28109     28111     28113     28112     28114
     28116     28115     28117     28119     28118     28120     28122     28121     28123
     28125     28124     28126     28128     28127     28129     28131     28130     28132
     28134     28133     28135     28137     28136     28138     28140     28139     28141
     28143     28142     28144     28146     28145     28147     28149     28148     28150
     28152     28151     28153     28155     28154     28156     28158     28157     28159
     28161     28160     28162     28164     28163     28165     28167     28166     28168
     28170     28169     28171     28173     28172     28174     28176     28175     28177
     28179     28178     28180     28182     28181     28183     28185     28184     28186
     28188     28187     28189     28191     28190     28192     28194     28193     28195
     28197     28196     28198     28200     28199     28201     28203     28202     28204
     28206     28205     28207     28209     28208     28210     28212     28211     28213
     28215     28214     28216     28218     28217     28219     28221     28220     28222
     28224     28223     28225     28227     28226     28228     28230     28229     28231
     28233     28232     28234     28236     28235     28237     28239     28238     28240
     28242     28241     28243     28245     28244     28246     28248     28247     28249
     28251     28250     28252     28254     28253     28255     28257     28256     28258
     28260     28259     28261     28263     28262     28264     28266     28265     28267
     28269     28268     28270     28272     28271     28273     28275     28274     28276
     28278     28277     28279     28281     28280     28282     28284     28283     28285
     28287     28286     28288     28290     28289     28291     28293     28292     28294
     28296     28295     28297     28299     28298     28300     28302     28301     28303
     28305     28304     28306     28308     28307     28309     28311     28310     28312
     28314     28313     28315     28317     28316     28318     28320     28319     28321
     28323     28322     28324     28326     28325     28327     28329     28328     28330
     28332     28331     28333     28335     28334     28336     28338     28337     28339
     28341     28340     28342     28344     28343     28345     28347     28346     28348
     28350     28349     28351     28353     28352     28354     28356     28355     28357
     28359     28358     28360     28362     28361     28363     28365     28364     28366
     28368     28367     28369     28371     28370     28372     28374     28373     28375
     28377     28376     28378     28380     28379     28381     28383     28382     28384
     28386     28385     28387     28389     28388     28390     28392     28391     28393
     28395     28394     28396     28398     28397     28399     28401     28400     28402
     28404     28403     28405     28407     28406     28408     28410     28409     28411
     28413     28412     28414     28416     28415     28417     28419     28418     28420
     28422     28421     28423     28425     28424     28426     28428     28427     28429
     28431     28430     28432     28434     28433     28435     28437     28436     28438
     28440     28439     28441     28443     28442     28444     28446     28445     28447
     28449     28448     28450     28452     28451     28453     28455     28454     28456
     28458     28457     28459     28461     28460     28462     28464     28463     28465
     28467     28466     28468     28470     28469     28471     28473     28472     28474
     28476     28475     28477     28479     28478     28480     28482     28481     28483
     28485     28484     28486     28488     28487     28489     28491     28490     28492
     28494     28493     28495     28497     28496     28498     28500     28499     28501
     28503     28502     28504     28506     28505     28507     28509     28508     28510
     28512     28511     28513     28515     28514     28516     28518     28517     28519
     28521     28520     28522     28524     28523     28525     28527     28526     28528
     28530     28529     28531     28533     28532     28534     28536     28535     28537
     28539     28538     28540     28542     28541     28543     28545     28544     28546
     28548     28547     28549     28551     28550     28552     28554     28553     28555
     28557     28556     28558     28560     28559     28561     28563     28562     28564
     28566     28565     28567     28569     28568     28570     28572     28571     28573
     28575     28574     28576     28578     28577     28579     28581     28580     28582
     28584     28583     28585     28587     28586     28588     28590     28589     28591
     28593     28592     28594     28596     28595     28597     28599     28598     28600
     28602     28601     28603     28605     28604     28606     28608     28607     28609
     28611     28610     28612     28614     28613     28615     28617     28616     28618
     28620     28619     28621     28623     28622     28624     28626     28625     28627
     28629     28628     28630     28632     28631     28633     28635     28634     28636
     28638     28637     28639     28641     28640     28642     28644     28643     28645
     28647     28646     28648     28650     28649     28651     28653     28652     28654
     28656     28655     28657     28659     28658     28660     28662     28661     28663
     28665     28664     28666     28668     28667     28669     28671     28670     28672
     28674     28673     28675     28677     28676     28678     28680     28679     28681
     28683     28682     28684     28686     28685     28687     28689     28688     28690
     28692     28691     28693     28695     28694     28696     28698     28697     28699
     28701     28700     28702     28704     28703     28705     28707     28706     28708
     28710     28709     28711     28713     28712     28714     28716     28715     28717
     28719     28718     28720     28722     28721     28723     28725     28724     28726
     28728     28727     28729     28731     28730     28732     28734     28733     28735
     28737     28736     28738     28740     28739     28741     28743     28742     28744
     28746     28745     28747     28749     28748     28750     28752     28751     28753
     28755     28754     28756     28758     28757     28759     28761     28760     28762
     28764     28763     28765     28767     28766     28768     28770     28769     28771
     28773     28772     28774     28776     28775     28777     28779     28778     28780
     28782     28781     28783     28785     28784     28786     28788     28787     28789
     28791     28790     28792     28794     28793     28795     28797     28796     28798
     28800     28799     28801     28803     28802     28804     28806     28805     28807
     28809     28808     28810     28812     28811     28813     28815     28814     28816
     28818     28817     28819     28821     28820     28822     28824     28823     28825
     28827     28826     28828     28830     28829     28831     28833     28832     28834
     28836     28835     28837     28839     28838     28840     28842     28841     28843
     28845     28844     28846     28848     28847     28849     28851     28850     28852
     28854     28853     28855     28857     28856     28858     28860     28859     28861
     28863     28862     28864     28866     28865     28867     28869     28868     28870
     28872     28871     28873     28875     28874     28876     28878     28877     28879
     28881     28880     28882     28884     28883     28885     28887     28886     28888
     28890     28889     28891     28893     28892     28894     28896     28895     28897
     28899     28898     28900     28902     28901     28903     28905     28904     28906
     28908     28907     28909     28911     28910     28912     28914     28913     28915
     28917     28916     28918     28920     28919     28921     28923     28922     28924
     28926     28925     28927     28929     28928     28930     28932     28931     28933
     28935     28934     28936     28938     28937     28939     28941     28940     28942
     28944     28943     28945     28947     28946     28948     28950     28949     28951
     28953     28952     28954     28956     28955     28957     28959     28958     28960
     28962     28961     28963     28965     28964     28966     28968     28967     28969
     28971     28970     28972     28974     28973     28975     28977     28976     28978
     28980     28979     28981     28983     28982     28984     28986     28985     28987
     28989     28988     28990     28992     28991     28993     28995     28994     28996
     28998     28997     28999     29001     29000     29002     29004     29003     29005
     29007     29006     29008     29010     29009     29011     29013     29012     29014
     29016     29015     29017     29019     29018     29020     29022     29021     29023
     29025     29024     29026     29028     29027     29029     29031     29030     29032
     29034     29033     29035     29037     29036     29038     29040     29039     29041
     29043     29042     29044     29046     29045     29047     29049     29048     29050
     29052     29051     29053     29055     29054     29056     29058     29057     29059
     29061     29060     29062     29064     29063     29065     29067     29066     29068
     29070     29069     29071     29073     29072     29074     29076     29075     29077
     29079     29078     29080     29082     29081     29083     29085     29084     29086
     29088     29087     29089     29091     29090     29092     29094     29093     29095
     29097     29096     29098     29100     29099     29101     29103     29102     29104
     29106     29105     29107     29109     29108     29110     29112     29111     29113
     29115     29114     29116     29118     29117     29119     29121     29120     29122
     29124     29123     29125     29127     29126     29128     29130     29129     29131
     29133     29132     29134     29136     29135     29137     29139     29138     29140
     29142     29141     29143     29145     29144     29146     29148     29147     29149
     29151     29150     29152     29154     29153     29155     29157     29156     29158
     29160     29159     29161     29163     29162     29164     29166     29165     29167
     29169     29168     29170     29172     29171     29173     29175     29174     29176
     29178     29177     29179     29181     29180     29182     29184     29183     29185
     29187     29186     29188     29190     29189     29191     29193     29192     29194
     29196     29195     29197     29199     29198     29200     29202     29201     29203
     29205     29204     29206     29208     29207     29209     29211     29210     29212
     29214     29213     29215     29217     29216     29218     29220     29219     29221
     29223     29222     29224     29226     29225     29227     29229     29228     29230
     29232     29231     29233     29235     29234     29236     29238     29237     29239
     29241     29240     29242     29244     29243     29245     29247     29246     29248
     29250     29249     29251     29253     29252     29254     29256     29255     29257
     29259     29258     29260     29262     29261     29263     29265     29264     29266
     29268     29267     29269     29271     29270     29272     29274     29273     29275
     29277     29276     29278     29280     29279     29281     29283     29282     29284
     29286     29285     29287     29289     29288     29290     29292     29291     29293
     29295     29294     29296     29298     29297     29299     29301     29300     29302
     29304     29303     29305     29307     29306     29308     29310     29309     29311
     29313     29312     29314     29316     29315     29317     29319     29318     29320
     29322     29321     29323     29325     29324     29326     29328     29327     29329
     29331     29330     29332     29334     29333     29335     29337     29336     29338
     29340     29339     29341     29343     29342     29344     29346     29345     29347
     29349     29348     29350     29352     29351     29353     29355     29354     29356
     29358     29357     29359     29361     29360     29362     29364     29363     29365
     29367     29366     29368     29370     29369     29371     29373     29372     29374
     29376     29375     29377     29379     29378     29380     29382     29381     29383
     29385     29384     29386     29388     29387     29389     29391     29390     29392
     29394     29393     29395     29397     29396     29398     29400     29399     29401
     29403     29402     29404     29406     29405     29407     29409     29408     29410
     29412     29411     29413     29415     29414     29416     29418     29417     29419
     29421     29420     29422     29424     29423     29425     29427     29426     29428
     29430     29429     29431     29433     29432     29434     29436     29435     29437
     29439     29438     29440     29442     29441     29443     29445     29444     29446
     29448     29447     29449     29451     29450     29452     29454     29453     29455
     29457     29456     29458     29460     29459     29461     29463     29462     29464
     29466     29465     29467     29469     29468     29470     29472     29471     29473
     29475     29474     29476     29478     29477     29479     29481     29480     29482
     29484     29483     29485     29487     29486     29488     29490     29489     29491
     29493     29492     29494     29496     29495     29497     29499     29498     29500
     29502     29501     29503     29505     29504     29506     29508     29507     29509
     29511     29510     29512     29514     29513     29515     29517     29516     29518
     29520     29519     29521     29523     29522     29524     29526     29525     29527
     29529     29528     29530     29532     29531     29533     29535     29534     29536
     29538     29537     29539     29541     29540     29542     29544     29543     29545
     29547     29546     29548     29550     29549     29551     29553     29552     29554
     29556     29555     29557     29559     29558     29560     29562     29561     29563
     29565     29564     29566     29568     29567     29569     29571     29570     29572
     29574     29573     29575     29577     29576     29578     29580     29579     29581
     29583     29582     29584     29586     29585     29587     29589     29588     29590
     29592     29591     29593     29595     29594     29596     29598     29597     29599
     29601     29600     29602     29604     29603     29605     29607     29606     29608
     29610     29609     29611     29613     29612     29614     29616     29615     29617
     29619     29618     29620     29622     29621     29623     29625     29624     29626
     29628     29627     29629     29631     29630     29632     29634     29633     29635
     29637     29636     29638     29640     29639     29641     29643     29642     29644
     29646     29645     29647     29649     29648     29650     29652     29651     29653
     29655     29654     29656     29658     29657     29659     29661     29660     29662
     29664     29663     29665     29667     29666     29668     29670     29669     29671
     29673     29672     29674     29676     29675     29677     29679     29678     29680
     29682     29681     29683     29685     29684     29686     29688     29687     29689
     29691     29690     29692     29694     29693     29695     29697     29696     29698
     29700     29699     29701     29703     29702     29704     29706     29705     29707
     29709     29708     29710     29712     29711     29713     29715     29714     29716
     29718     29717     29719     29721     29720     29722     29724     29723     29725
     29727     29726     29728     29730     29729     29731     29733     29732     29734
     29736     29735     29737     29739     29738     29740     29742     29741     29743
     29745     29744     29746     29748     29747     29749     29751     29750     29752
     29754     29753     29755     29757     29756     29758     29760     29759     29761
     29763     29762     29764     29766     29765     29767     29769     29768     29770
     29772     29771     29773     29775     29774     29776     29778     29777     29779
     29781     29780     29782     29784     29783     29785     29787     29786     29788
     29790     29789     29791     29793     29792     29794     29796     29795     29797
     29799     29798     29800     29802     29801     29803     29805     29804     29806
     29808     29807     29809     29811     29810     29812     29814     29813     29815
     29817     29816     29818     29820     29819     29821     29823     29822     29824
     29826     29825     29827     29829     29828     29830     29832     29831     29833
     29835     29834     29836     29838     29837     29839     29841     29840     29842
     29844     29843     29845     29847     29846     29848     29850     29849     29851
     29853     29852     29854     29856     29855     29857     29859     29858     29860
     29862     29861     29863     29865     29864     29866     29868     29867     29869
     29871     29870     29872     29874     29873     29875     29877     29876     29878
     29880     29879     29881     29883     29882     29884     29886     29885     29887
     29889     29888     29890     29892     29891     29893     29895     29894     29896
     29898     29897     29899     29901     29900     29902     29904     29903     29905
     29907     29906     29908     29910     29909     29911     29913     29912     29914
     29916     29915     29917     29919     29918     29920     29922     29921     29923
     29925     29924     29926     29928     29927     29929     29931     29930     29932
     29934     29933     29935     29937     29936     29938     29940     29939     29941
     29943     29942     29944     29946     29945     29947     29949     29948     29950
     29952     29951     29953     29955     29954     29956     29958     29957     29959
     29961     29960     29962     29964     29963     29965     29967     29966     29968
     29970     29969     29971     29973     29972     29974     29976     29975     29977
     29979     29978     29980     29982     29981     29983     29985     29984     29986
     29988     29987     29989     29991     29990     29992     29994     29993     29995
     29997     29996     29998     30000     29999     30001     30003     30002     30004
     30006     30005     30007     30009     30008     30010     30012     30011     30013
     30015     30014     30016     30018     30017     30019     30021     30020     30022
     30024     30023     30025     30027     30026     30028     30030     30029     30031
     30033     30032     30034     30036     30035     30037     30039     30038     30040
     30042     30041     30043     30045     30044     30046     30048     30047     30049
     30051     30050     30052     30054     30053     30055     30057     30056     30058
     30060     30059     30061     30063     30062     30064     30066     30065     30067
     30069     30068     30070     30072     30071     30073     30075     30074     30076
     30078     30077     30079     30081     30080     30082     30084     30083     30085
     30087     30086     30088     30090     30089     30091     30093     30092     30094
     30096     30095     30097     30099     30098     30100     30102     30101     30103
     30105     30104     30106     30108     30107     30109     30111     30110     30112
     30114     30113     30115     30117     30116     30118     30120     30119     30121
     30123     30122     30124     30126     30125     30127     30129     30128     30130
     30132     30131     30133     30135     30134     30136     30138     30137     30139
     30141     30140     30142     30144     30143     30145     30147     30146     30148
     30150     30149     30151     30153     30152     30154     30156     30155     30157
     30159     30158     30160     30162     30161     30163     30165     30164     30166
     30168     30167     30169     30171     30170     30172     30174     30173     30175
     30177     30176     30178     30180     30179     30181     30183     30182     30184
     30186     30185     30187     30189     30188     30190     30192     30191     30193
     30195     30194     30196     30198     30197     30199     30201     30200     30202
     30204     30203     30205     30207     30206     30208     30210     30209     30211
     30213     30212     30214     30216     30215     30217     30219     30218     30220
     30222     30221     30223     30225     30224     30226     30228     30227     30229
     30231     30230     30232     30234     30233     30235     30237     30236     30238
     30240     30239     30241     30243     30242     30244     30246     30245     30247
     30249     30248     30250     30252     30251     30253     30255     30254     30256
     30258     30257     30259     30261     30260     30262     30264     30263     30265
     30267     30266     30268     30270     30269     30271     30273     30272     30274
     30276     30275     30277     30279     30278     30280     30282     30281     30283
     30285     30284     30286     30288     30287     30289     30291     30290     30292
     30294     30293     30295     30297     30296     30298     30300     30299     30301
     30303     30302     30304     30306     30305     30307     30309     30308     30310
     30312     30311     30313     30315     30314     30316     30318     30317     30319
     30321     30320     30322     30324     30323     30325     30327     30326     30328
     30330     30329     30331     30333     30332     30334     30336     30335     30337
     30339     30338     30340     30342     30341     30343     30345     30344     30346
     30348     30347     30349     30351     30350     30352     30354     30353     30355
     30357     30356     30358     30360     30359     30361     30363     30362     30364
     30366     30365     30367     30369     30368     30370     30372     30371     30373
     30375     30374     30376     30378     30377     30379     30381     30380     30382
     30384     30383     30385     30387     30386     30388     30390     30389     30391
     30393     30392     30394     30396     30395     30397     30399     30398     30400
     30402     30401     30403     30405     30404     30406     30408     30407     30409
     30411     30410     30412     30414     30413     30415     30417     30416     30418
     30420     30419     30421     30423     30422     30424     30426     30425     30427
     30429     30428     30430     30432     30431     30433     30435     30434     30436
     30438     30437     30439     30441     30440     30442     30444     30443     30445
     30447     30446     30448     30450     30449     30451     30453     30452     30454
     30456     30455     30457     30459     30458     30460     30462     30461     30463
     30465     30464     30466     30468     30467     30469     30471     30470     30472
     30474     30473     30475     30477     30476     30478     30480     30479     30481
     30483     30482     30484     30486     30485     30487     30489     30488     30490
     30492     30491     30493     30495     30494     30496     30498     30497     30499
     30501     30500     30502     30504     30503     30505     30507     30506     30508
     30510     30509     30511     30513     30512     30514     30516     30515     30517
     30519     30518     30520     30522     30521     30523     30525     30524     30526
     30528     30527     30529     30531     30530     30532     30534     30533     30535
     30537     30536     30538     30540     30539     30541     30543     30542     30544
     30546     30545     30547     30549     30548     30550     30552     30551     30553
     30555     30554     30556     30558     30557     30559     30561     30560     30562
     30564     30563     30565     30567     30566     30568     30570     30569     30571
     30573     30572     30574     30576     30575     30577     30579     30578     30580
     30582     30581     30583     30585     30584     30586     30588     30587     30589
     30591     30590     30592     30594     30593     30595     30597     30596     30598
     30600     30599     30601     30603     30602     30604     30606     30605     30607
     30609     30608     30610     30612     30611     30613     30615     30614     30616
     30618     30617     30619     30621     30620     30622     30624     30623     30625
     30627     30626     30628     30630     30629     30631     30633     30632     30634
     30636     30635     30637     30639     30638     30640     30642     30641     30643
     30645     30644     30646     30648     30647     30649     30651     30650     30652
     30654     30653     30655     30657     30656     30658     30660     30659     30661
     30663     30662     30664     30666     30665     30667     30669     30668     30670
     30672     30671     30673     30675     30674     30676     30678     30677     30679
     30681     30680     30682     30684     30683     30685     30687     30686     30688
     30690     30689     30691     30693     30692     30694     30696     30695     30697
     30699     30698     30700     30702     30701     30703     30705     30704     30706
     30708     30707     30709     30711     30710     30712     30714     30713     30715
     30717     30716     30718     30720     30719     30721     30723     30722     30724
     30726     30725     30727     30729     30728     30730     30732     30731     30733
     30735     30734     30736     30738     30737     30739     30741     30740     30742
     30744     30743     30745     30747     30746     30748     30750     30749     30751
     30753     30752     30754     30756     30755     30757     30759     30758     30760
     30762     30761     30763     30765     30764     30766     30768     30767     30769
     30771     30770     30772     30774     30773     30775     30777     30776     30778
     30780     30779     30781     30783     30782     30784     30786     30785     30787
     30789     30788     30790     30792     30791     30793     30795     30794     30796
     30798     30797     30799     30801     30800     30802     30804     30803     30805
     30807     30806     30808     30810     30809     30811     30813     30812     30814
     30816     30815     30817     30819     30818     30820     30822     30821     30823
     30825     30824     30826     30828     30827     30829     30831     30830     30832
     30834     30833     30835     30837     30836     30838     30840     30839     30841
     30843     30842     30844     30846     30845     30847     30849     30848     30850
     30852     30851     30853     30855     30854     30856     30858     30857     30859
     30861     30860     30862     30864     30863     30865     30867     30866     30868
     30870     30869     30871     30873     30872     30874     30876     30875     30877
     30879     30878     30880     30882     30881     30883     30885     30884     30886
     30888     30887     30889     30891     30890     30892     30894     30893     30895
     30897     30896     30898     30900     30899     30901     30903     30902     30904
     30906     30905     30907     30909     30908     30910     30912     30911     30913
     30915     30914     30916     30918     30917     30919     30921     30920     30922
     30924     30923     30925     30927     30926     30928     30930     30929     30931
     30933     30932     30934     30936     30935     30937     30939     30938     30940
     30942     30941     30943     30945     30944     30946     30948     30947     30949
     30951     30950     30952     30954     30953     30955     30957     30956     30958
     30960     30959     30961     30963     30962     30964     30966     30965     30967
     30969     30968     30970     30972     30971     30973     30975     30974     30976
     30978     30977     30979     30981     30980     30982     30984     30983     30985
     30987     30986     30988     30990     30989     30991     30993     30992     30994
     30996     30995     30997     30999     30998     31000     31002     31001     31003
     31005     31004     31006     31008     31007     31009     31011     31010     31012
     31014     31013     31015     31017     31016     31018     31020     31019     31021
     31023     31022     31024     31026     31025     31027     31029     31028     31030
     31032     31031     31033     31035     31034     31036     31038     31037     31039
     31041     31040     31042     31044     31043     31045     31047     31046     31048
     31050     31049     31051     31053     31052     31054     31056     31055     31057
     31059     31058     31060     31062     31061     31063     31065     31064     31066
     31068     31067     31069     31071     31070     31072     31074     31073     31075
     31077     31076     31078     31080     31079     31081     31083     31082     31084
     31086     31085     31087     31089     31088     31090     31092     31091     31093
     31095     31094     31096     31098     31097     31099     31101     31100     31102
     31104     31103     31105     31107     31106     31108     31110     31109     31111
     31113     31112     31114     31116     31115     31117     31119     31118     31120
     31122     31121     31123     31125     31124     31126     31128     31127     31129
     31131     31130     31132     31134     31133     31135     31137     31136     31138
     31140     31139     31141     31143     31142     31144     31146     31145     31147
     31149     31148     31150     31152     31151     31153     31155     31154     31156
     31158     31157     31159     31161     31160     31162     31164     31163     31165
     31167     31166     31168     31170     31169     31171     31173     31172     31174
     31176     31175     31177     31179     31178     31180     31182     31181     31183
     31185     31184     31186     31188     31187     31189     31191     31190     31192
     31194     31193     31195     31197     31196     31198     31200     31199     31201
     31203     31202     31204     31206     31205     31207     31209     31208     31210
     31212     31211     31213     31215     31214     31216     31218     31217     31219
     31221     31220     31222     31224     31223     31225     31227     31226     31228
     31230     31229     31231     31233     31232     31234     31236     31235     31237
     31239     31238     31240     31242     31241     31243     31245     31244     31246
     31248     31247     31249     31251     31250     31252     31254     31253     31255
     31257     31256     31258     31260     31259     31261     31263     31262     31264
     31266     31265     31267     31269     31268     31270     31272     31271     31273
     31275     31274     31276     31278     31277     31279     31281     31280     31282
     31284     31283     31285     31287     31286     31288     31290     31289     31291
     31293     31292     31294     31296     31295     31297     31299     31298     31300
     31302     31301     31303     31305     31304     31306     31308     31307     31309
     31311     31310     31312     31314     31313     31315     31317     31316     31318
     31320     31319     31321     31323     31322     31324     31326     31325     31327
     31329     31328     31330     31332     31331     31333     31335     31334     31336
     31338     31337     31339     31341     31340     31342     31344     31343     31345
     31347     31346     31348     31350     31349     31351     31353     31352     31354
     31356     31355     31357     31359     31358     31360     31362     31361     31363
     31365     31364     31366     31368     31367     31369     31371     31370     31372
     31374     31373     31375     31377     31376     31378     31380     31379     31381
     31383     31382     31384     31386     31385     31387     31389     31388     31390
     31392     31391     31393     31395     31394     31396     31398     31397     31399
     31401     31400     31402     31404     31403     31405     31407     31406     31408
     31410     31409     31411     31413     31412     31414     31416     31415     31417
     31419     31418     31420     31422     31421     31423     31425     31424     31426
     31428     31427     31429     31431     31430     31432     31434     31433     31435
     31437     31436     31438     31440     31439     31441     31443     31442     31444
     31446     31445     31447     31449     31448     31450     31452     31451     31453
     31455     31454     31456     31458     31457     31459     31461     31460     31462
     31464     31463     31465     31467     31466     31468     31470     31469     31471
     31473     31472     31474     31476     31475     31477     31479     31478     31480
     31482     31481     31483     31485     31484     31486     31488     31487     31489
     31491     31490     31492     31494     31493     31495     31497     31496     31498
     31500     31499     31501     31503     31502     31504     31506     31505     31507
     31509     31508     31510     31512     31511     31513     31515     31514     31516
     31518     31517     31519     31521     31520     31522     31524     31523     31525
     31527     31526     31528     31530     31529     31531     31533     31532     31534
     31536     31535     31537     31539     31538     31540     31542     31541     31543
     31545     31544     31546     31548     31547     31549     31551     31550     31552
     31554     31553     31555     31557     31556     31558     31560     31559     31561
     31563     31562     31564     31566     31565     31567     31569     31568     31570
     31572     31571     31573     31575     31574     31576     31578     31577     31579
     31581     31580     31582     31584     31583     31585     31587     31586     31588
     31590     31589     31591     31593     31592     31594     31596     31595     31597
     31599     31598     31600     31602     31601     31603     31605     31604     31606
     31608     31607     31609     31611     31610     31612     31614     31613     31615
     31617     31616     31618     31620     31619     31621     31623     31622     31624
     31626     31625     31627     31629     31628     31630     31632     31631     31633
     31635     31634     31636     31638     31637     31639     31641     31640     31642
     31644     31643     31645     31647     31646     31648     31650     31649     31651
     31653     31652     31654     31656     31655     31657     31659     31658     31660
     31662     31661     31663     31665     31664     31666     31668     31667     31669
     31671     31670     31672     31674     31673     31675     31677     31676     31678
     31680     31679     31681     31683     31682     31684     31686     31685     31687
     31689     31688     31690     31692     31691     31693     31695     31694     31696
     31698     31697     31699     31701     31700     31702     31704     31703     31705
     31707     31706     31708     31710     31709     31711     31713     31712     31714
     31716     31715     31717     31719     31718     31720     31722     31721     31723
     31725     31724     31726     31728     31727     31729     31731     31730     31732
     31734     31733     31735     31737     31736     31738     31740     31739     31741
     31743     31742     31744     31746     31745     31747     31749     31748     31750
     31752     31751     31753     31755     31754     31756     31758     31757     31759
     31761     31760     31762     31764     31763     31765     31767     31766     31768
     31770     31769     31771     31773     31772     31774     31776     31775     31777
     31779     31778     31780     31782     31781     31783     31785     31784     31786
     31788     31787     31789     31791     31790     31792     31794     31793     31795
     31797     31796     31798     31800     31799     31801     31803     31802     31804
     31806     31805     31807     31809     31808     31810     31812     31811     31813
     31815     31814     31816     31818     31817     31819     31821     31820     31822
     31824     31823     31825     31827     31826     31828     31830     31829     31831
     31833     31832     31834     31836     31835     31837     31839     31838     31840
     31842     31841     31843     31845     31844     31846     31848     31847     31849
     31851     31850     31852     31854     31853     31855     31857     31856     31858
     31860     31859     31861     31863     31862     31864     31866     31865     31867
     31869     31868     31870     31872     31871     31873     31875     31874     31876
     31878     31877     31879     31881     31880     31882     31884     31883     31885
     31887     31886     31888     31890     31889     31891     31893     31892     31894
     31896     31895     31897     31899     31898     31900     31902     31901     31903
     31905     31904     31906     31908     31907     31909     31911     31910     31912
     31914     31913     31915     31917     31916     31918     31920     31919     31921
     31923     31922     31924     31926     31925     31927     31929     31928     31930
     31932     31931     31933     31935     31934     31936     31938     31937     31939
     31941     31940     31942     31944     31943     31945     31947     31946     31948
     31950     31949     31951     31953     31952     31954     31956     31955     31957
     31959     31958     31960     31962     31961     31963     31965     31964     31966
     31968     31967     31969     31971     31970     31972     31974     31973     31975
     31977     31976     31978     31980     31979     31981     31983     31982     31984
     31986     31985     31987     31989     31988     31990     31992     31991     31993
     31995     31994     31996     31998     31997     31999     32001     32000     32002
     32004     32003     32005     32007     32006     32008     32010     32009     32011
     32013     32012     32014     32016     32015     32017     32019     32018     32020
     32022     32021     32023     32025     32024     32026     32028     32027     32029
     32031     32030     32032     32034     32033     32035     32037     32036     32038
     32040     32039     32041     32043     32042     32044     32046     32045     32047
     32049     32048     32050     32052     32051     32053     32055     32054     32056
     32058     32057     32059     32061     32060     32062     32064     32063     32065
     32067     32066     32068     32070     32069     32071     32073     32072     32074
     32076     32075     32077     32079     32078     32080     32082     32081     32083
     32085     32084     32086     32088     32087     32089     32091     32090     32092
     32094     32093     32095     32097     32096     32098     32100     32099     32101
     32103     32102     32104     32106     32105     32107     32109     32108     32110
     32112     32111     32113     32115     32114     32116     32118     32117     32119
     32121     32120     32122     32124     32123     32125     32127     32126     32128
     32130     32129     32131     32133     32132     32134     32136     32135     32137
     32139     32138     32140     32142     32141     32143     32145     32144     32146
     32148     32147     32149     32151     32150     32152     32154     32153     32155
     32157     32156     32158     32160     32159     32161     32163     32162     32164
     32166     32165     32167     32169     32168     32170     32172     32171     32173
     32175     32174     32176     32178     32177     32179     32181     32180     32182
     32184     32183     32185     32187     32186     32188     32190     32189     32191
     32193     32192     32194     32196     32195     32197     32199     32198     32200
     32202     32201     32203     32205     32204     32206     32208     32207     32209
     32211     32210     32212     32214     32213     32215     32217     32216     32218
     32220     32219     32221     32223     32222     32224     32226     32225     32227
     32229     32228     32230     32232     32231     32233     32235     32234     32236
     32238     32237     32239     32241     32240     32242     32244     32243     32245
     32247     32246     32248     32250     32249     32251     32253     32252     32254
     32256     32255     32257     32259     32258     32260     32262     32261     32263
     32265     32264     32266     32268     32267     32269     32271     32270     32272
     32274     32273     32275     32277     32276     32278     32280     32279     32281
     32283     32282     32284     32286     32285     32287     32289     32288     32290
     32292     32291     32293     32295     32294     32296     32298     32297     32299
     32301     32300     32302     32304     32303     32305     32307     32306     32308
     32310     32309     32311     32313     32312     32314     32316     32315     32317
     32319     32318     32320     32322     32321     32323     32325     32324     32326
     32328     32327     32329     32331     32330     32332     32334     32333     32335
     32337     32336     32338     32340     32339     32341     32343     32342     32344
     32346     32345     32347     32349     32348     32350     32352     32351     32353
     32355     32354     32356     32358     32357     32359     32361     32360     32362
     32364     32363     32365     32367     32366     32368     32370     32369     32371
     32373     32372     32374     32376     32375     32377     32379     32378     32380
     32382     32381     32383     32385     32384     32386     32388     32387     32389
     32391     32390     32392     32394     32393     32395     32397     32396     32398
     32400     32399     32401     32403     32402     32404     32406     32405     32407
     32409     32408     32410     32412     32411     32413     32415     32414     32416
     32418     32417     32419     32421     32420     32422     32424     32423     32425
     32427     32426     32428     32430     32429     32431     32433     32432     32434
     32436     32435     32437     32439     32438     32440     32442     32441     32443
     32445     32444     32446     32448     32447     32449     32451     32450     32452
     32454     32453     32455     32457     32456     32458     32460     32459     32461
     32463     32462     32464     32466     32465     32467     32469     32468     32470
     32472     32471     32473     32475     32474     32476     32478     32477     32479
     32481     32480     32482     32484     32483     32485     32487     32486     32488
     32490     32489     32491     32493     32492     32494     32496     32495     32497
     32499     32498     32500     32502     32501     32503     32505     32504     32506
     32508     32507     32509     32511     32510     32512     32514     32513     32515
     32517     32516     32518     32520     32519     32521     32523     32522     32524
     32526     32525     32527     32529     32528     32530     32532     32531     32533
     32535     32534     32536     32538     32537     32539     32541     32540     32542
     32544     32543     32545     32547     32546     32548     32550     32549     32551
     32553     32552     32554     32556     32555     32557     32559     32558     32560
     32562     32561     32563     32565     32564     32566     32568     32567     32569
     32571     32570     32572     32574     32573     32575     32577     32576     32578
     32580     32579     32581     32583     32582     32584     32586     32585     32587
     32589     32588     32590     32592     32591     32593     32595     32594     32596
     32598     32597     32599     32601     32600     32602     32604     32603     32605
     32607     32606     32608     32610     32609     32611     32613     32612     32614
     32616     32615     32617     32619     32618     32620     32622     32621     32623
     32625     32624     32626     32628     32627     32629     32631     32630     32632
     32634     32633     32635     32637     32636     32638     32640     32639     32641
     32643     32642     32644     32646     32645     32647     32649     32648     32650
     32652     32651     32653     32655     32654     32656     32658     32657     32659
     32661     32660     32662     32664     32663     32665     32667     32666     32668
     32670     32669     32671     32673     32672     32674     32676     32675     32677
     32679     32678     32680     32682     32681     32683     32685     32684     32686
     32688     32687     32689     32691     32690     32692     32694     32693     32695
     32697     32696     32698     32700     32699     32701     32703     32702     32704
     32706     32705     32707     32709     32708     32710     32712     32711     32713
     32715     32714     32716     32718     32717     32719     32721     32720     32722
     32724     32723     32725     32727     32726     32728     32730     32729     32731
     32733     32732     32734     32736     32735     32737     32739     32738     32740
     32742     32741     32743     32745     32744     32746     32748     32747     32749
     32751     32750     32752     32754     32753     32755     32757     32756     32758
     32760     32759     32761     32763     32762     32764     32766     32765     32767
     32769     32768     32770     32772     32771     32773     32775     32774     32776
     32778     32777     32779     32781     32780     32782     32784     32783     32785
     32787     32786     32788     32790     32789     32791     32793     32792     32794
     32796     32795     32797     32799     32798     32800     32802     32801     32803
     32805     32804     32806     32808     32807     32809     32811     32810     32812
     32814     32813     32815     32817     32816     32818     32820     32819     32821
     32823     32822     32824     32826     32825     32827     32829     32828     32830
     32832     32831     32833     32835     32834     32836     32838     32837     32839
     32841     32840     32842     32844     32843     32845     32847     32846     32848
     32850     32849     32851     32853     32852     32854     32856     32855     32857
     32859     32858     32860     32862     32861     32863     32865     32864     32866
     32868     32867     32869     32871     32870     32872     32874     32873     32875
     32877     32876     32878     32880     32879     32881     32883     32882     32884
     32886     32885     32887     32889     32888     32890     32892     32891     32893
     32895     32894     32896     32898     32897     32899     32901     32900     32902
     32904     32903     32905     32907     32906     32908     32910     32909     32911
     32913     32912     32914     32916     32915     32917     32919     32918     32920
     32922     32921     32923     32925     32924     32926     32928     32927     32929
     32931     32930     32932     32934     32933     32935     32937     32936     32938
     32940     32939     32941     32943     32942     32944     32946     32945     32947
     32949     32948     32950     32952     32951     32953     32955     32954     32956
     32958     32957     32959     32961     32960     32962     32964     32963     32965
     32967     32966     32968     32970     32969     32971     32973     32972     32974
     32976     32975     32977     32979     32978     32980     32982     32981     32983
     32985     32984     32986     32988     32987     32989     32991     32990     32992
     32994     32993     32995     32997     32996     32998     33000     32999     33001
     33003     33002     33004     33006     33005     33007     33009     33008     33010
     33012     33011     33013     33015     33014     33016     33018     33017     33019
     33021     33020     33022     33024     33023     33025     33027     33026     33028
     33030     33029     33031     33033     33032     33034     33036     33035     33037
     33039     33038     33040     33042     33041     33043     33045     33044     33046
     33048     33047     33049     33051     33050     33052     33054     33053     33055
     33057     33056     33058     33060     33059     33061     33063     33062     33064
     33066     33065     33067     33069     33068     33070     33072     33071     33073
     33075     33074     33076     33078     33077     33079     33081     33080     33082
     33084     33083     33085     33087     33086     33088     33090     33089     33091
     33093     33092     33094     33096     33095     33097     33099     33098     33100
     33102     33101     33103     33105     33104     33106     33108     33107     33109
     33111     33110     33112     33114     33113     33115     33117     33116     33118
     33120     33119     33121     33123     33122     33124     33126     33125     33127
     33129     33128     33130     33132     33131     33133     33135     33134     33136
     33138     33137     33139     33141     33140     33142     33144     33143     33145
     33147     33146     33148     33150     33149     33151     33153     33152     33154
     33156     33155     33157     33159     33158     33160     33162     33161     33163
     33165     33164     33166     33168     33167     33169     33171     33170     33172
     33174     33173     33175     33177     33176     33178     33180     33179     33181
     33183     33182     33184     33186     33185     33187     33189     33188     33190
     33192     33191     33193     33195     33194     33196     33198     33197     33199
     33201     33200     33202     33204     33203     33205     33207     33206     33208
     33210     33209     33211     33213     33212     33214     33216     33215     33217
     33219     33218     33220     33222     33221     33223     33225     33224     33226
     33228     33227     33229     33231     33230     33232     33234     33233     33235
     33237     33236     33238     33240     33239     33241     33243     33242     33244
     33246     33245     33247     33249     33248     33250     33252     33251     33253
     33255     33254     33256     33258     33257     33259     33261     33260     33262
     33264     33263     33265     33267     33266     33268     33270     33269     33271
     33273     33272     33274     33276     33275     33277     33279     33278     33280
     33282     33281     33283     33285     33284     33286     33288     33287     33289
     33291     33290     33292     33294     33293     33295     33297     33296     33298
     33300     33299     33301     33303     33302     33304     33306     33305     33307
     33309     33308     33310     33312     33311     33313     33315     33314     33316
     33318     33317     33319     33321     33320     33322     33324     33323     33325
     33327     33326     33328     33330     33329     33331     33333     33332     33334
     33336     33335     33337     33339     33338     33340     33342     33341     33343
     33345     33344     33346     33348     33347     33349     33351     33350     33352
     33354     33353     33355     33357     33356     33358     33360     33359     33361
     33363     33362     33364     33366     33365     33367     33369     33368     33370
     33372     33371     33373     33375     33374     33376     33378     33377     33379
     33381     33380     33382     33384     33383     33385     33387     33386     33388
     33390     33389     33391     33393     33392     33394     33396     33395     33397
     33399     33398     33400     33402     33401     33403     33405     33404     33406
     33408     33407     33409     33411     33410     33412     33414     33413     33415
     33417     33416     33418     33420     33419     33421     33423     33422     33424
     33426     33425     33427     33429     33428     33430     33432     33431     33433
     33435     33434     33436     33438     33437     33439     33441     33440     33442
     33444     33443     33445     33447     33446     33448     33450     33449     33451
     33453     33452     33454     33456     33455     33457     33459     33458     33460
     33462     33461     33463     33465     33464     33466     33468     33467     33469
     33471     33470     33472     33474     33473     33475     33477     33476     33478
     33480     33479     33481     33483     33482     33484     33486     33485     33487
     33489     33488     33490     33492     33491     33493     33495     33494     33496
     33498     33497     33499     33501     33500     33502     33504     33503     33505
     33507     33506     33508     33510     33509     33511     33513     33512     33514
     33516     33515     33517     33519     33518     33520     33522     33521     33523
     33525     33524     33526     33528     33527     33529     33531     33530     33532
     33534     33533     33535     33537     33536     33538     33540     33539     33541
     33543     33542     33544     33546     33545     33547     33549     33548     33550
     33552     33551     33553     33555     33554     33556     33558     33557     33559
     33561     33560     33562     33564     33563     33565     33567     33566     33568
     33570     33569     33571     33573     33572     33574     33576     33575     33577
     33579     33578     33580     33582     33581     33583     33585     33584     33586
     33588     33587     33589     33591     33590     33592     33594     33593     33595
     33597     33596     33598     33600     33599     33601     33603     33602     33604
     33606     33605     33607     33609     33608     33610     33612     33611     33613
     33615     33614     33616     33618     33617     33619     33621     33620     33622
     33624     33623     33625     33627     33626     33628     33630     33629     33631
     33633     33632     33634     33636     33635     33637     33639     33638     33640
     33642     33641     33643     33645     33644     33646     33648     33647     33649
     33651     33650     33652     33654     33653     33655     33657     33656     33658
     33660     33659     33661     33663     33662     33664     33666     33665     33667
     33669     33668     33670     33672     33671     33673     33675     33674     33676
     33678     33677     33679     33681     33680     33682     33684     33683     33685
     33687     33686     33688     33690     33689     33691     33693     33692     33694
     33696     33695     33697     33699     33698     33700     33702     33701     33703
     33705     33704     33706     33708     33707     33709     33711     33710     33712
     33714     33713     33715     33717     33716     33718     33720     33719     33721
     33723     33722     33724     33726     33725     33727     33729     33728     33730
     33732     33731     33733     33735     33734     33736     33738     33737     33739
     33741     33740     33742     33744     33743     33745     33747     33746     33748
     33750     33749     33751     33753     33752     33754     33756     33755     33757
     33759     33758     33760     33762     33761     33763     33765     33764     33766
     33768     33767     33769     33771     33770     33772     33774     33773     33775
     33777     33776     33778     33780     33779     33781     33783     33782     33784
     33786     33785     33787     33789     33788     33790     33792     33791     33793
     33795     33794     33796     33798     33797     33799     33801     33800     33802
     33804     33803     33805     33807     33806     33808     33810     33809     33811
     33813     33812     33814     33816     33815     33817     33819     33818     33820
     33822     33821     33823     33825     33824     33826     33828     33827     33829
     33831     33830     33832     33834     33833     33835     33837     33836     33838
     33840     33839     33841     33843     33842     33844     33846     33845     33847
     33849     33848     33850     33852     33851     33853     33855     33854     33856
     33858     33857     33859     33861     33860     33862     33864     33863     33865
     33867     33866     33868     33870     33869     33871     33873     33872     33874
     33876     33875     33877     33879     33878     33880     33882     33881     33883
     33885     33884     33886     33888     33887     33889     33891     33890     33892
     33894     33893     33895     33897     33896     33898     33900     33899     33901
     33903     33902     33904     33906     33905     33907     33909     33908     33910
     33912     33911     33913     33915     33914     33916     33918     33917     33919
     33921     33920     33922     33924     33923     33925     33927     33926     33928
     33930     33929     33931     33933     33932     33934     33936     33935     33937
     33939     33938     33940     33942     33941     33943     33945     33944     33946
     33948     33947     33949     33951     33950     33952     33954     33953     33955
     33957     33956     33958     33960     33959     33961     33963     33962     33964
     33966     33965     33967     33969     33968     33970     33972     33971     33973
     33975     33974     33976     33978     33977     33979     33981     33980     33982
     33984     33983     33985     33987     33986     33988     33990     33989     33991
     33993     33992     33994     33996     33995     33997     33999     33998     34000
     34002     34001     34003     34005     34004     34006     34008     34007     34009
     34011     34010     34012     34014     34013     34015     34017     34016     34018
     34020     34019     34021     34023     34022     34024     34026     34025     34027
     34029     34028     34030     34032     34031     34033     34035     34034     34036
     34038     34037     34039     34041     34040     34042     34044     34043     34045
     34047     34046     34048     34050     34049     34051     34053     34052     34054
     34056     34055     34057     34059     34058     34060     34062     34061     34063
     34065     34064     34066     34068     34067     34069     34071     34070     34072
     34074     34073     34075     34077     34076     34078     34080     34079     34081
     34083     34082     34084     34086     34085     34087     34089     34088     34090
     34092     34091     34093     34095     34094     34096     34098     34097     34099
     34101     34100     34102     34104     34103     34105     34107     34106     34108
     34110     34109     34111     34113     34112     34114     34116     34115     34117
     34119     34118     34120     34122     34121     34123     34125     34124     34126
     34128     34127     34129     34131     34130     34132     34134     34133     34135
     34137     34136     34138     34140     34139     34141     34143     34142     34144
     34146     34145     34147     34149     34148     34150     34152     34151     34153
     34155     34154     34156     34158     34157     34159     34161     34160     34162
     34164     34163     34165     34167     34166     34168     34170     34169     34171
     34173     34172     34174     34176     34175     34177     34179     34178     34180
     34182     34181     34183     34185     34184     34186     34188     34187     34189
     34191     34190     34192     34194     34193     34195     34197     34196     34198
     34200     34199     34201     34203     34202     34204     34206     34205     34207
     34209     34208     34210     34212     34211     34213     34215     34214     34216
     34218     34217     34219     34221     34220     34222     34224     34223     34225
     34227     34226     34228     34230     34229     34231     34233     34232     34234
     34236     34235     34237     34239     34238     34240     34242     34241     34243
     34245     34244     34246     34248     34247     34249     34251     34250     34252
     34254     34253     34255     34257     34256     34258     34260     34259     34261
     34263     34262     34264     34266     34265     34267     34269     34268     34270
     34272     34271     34273     34275     34274     34276     34278     34277     34279
     34281     34280     34282     34284     34283     34285     34287     34286     34288
     34290     34289     34291     34293     34292     34294     34296     34295     34297
     34299     34298     34300     34302     34301     34303     34305     34304     34306
     34308     34307     34309     34311     34310     34312     34314     34313     34315
     34317     34316     34318     34320     34319     34321     34323     34322     34324
     34326     34325     34327     34329     34328     34330     34332     34331     34333
     34335     34334     34336     34338     34337     34339     34341     34340     34342
     34344     34343     34345     34347     34346     34348     34350     34349     34351
     34353     34352     34354     34356     34355     34357     34359     34358     34360
     34362     34361     34363     34365     34364     34366     34368     34367     34369
     34371     34370     34372     34374     34373     34375     34377     34376     34378
     34380     34379     34381     34383     34382     34384     34386     34385     34387
     34389     34388     34390     34392     34391     34393     34395     34394     34396
     34398     34397     34399     34401     34400     34402     34404     34403     34405
     34407     34406     34408     34410     34409     34411     34413     34412     34414
     34416     34415     34417     34419     34418     34420     34422     34421     34423
     34425     34424     34426     34428     34427     34429     34431     34430     34432
     34434     34433     34435     34437     34436     34438     34440     34439     34441
     34443     34442     34444     34446     34445     34447     34449     34448     34450
     34452     34451     34453     34455     34454     34456     34458     34457     34459
     34461     34460     34462     34464     34463     34465     34467     34466     34468
     34470     34469     34471     34473     34472     34474     34476     34475     34477
     34479     34478     34480     34482     34481     34483     34485     34484     34486
     34488     34487     34489     34491     34490     34492     34494     34493     34495
     34497     34496     34498     34500     34499     34501     34503     34502     34504
     34506     34505     34507     34509     34508     34510     34512     34511     34513
     34515     34514     34516     34518     34517     34519     34521     34520     34522
     34524     34523     34525     34527     34526     34528     34530     34529     34531
     34533     34532     34534     34536     34535     34537     34539     34538     34540
     34542     34541     34543     34545     34544     34546     34548     34547     34549
     34551     34550     34552     34554     34553     34555     34557     34556     34558
     34560     34559     34561     34563     34562     34564     34566     34565     34567
     34569     34568     34570     34572     34571     34573     34575     34574     34576
     34578     34577     34579     34581     34580     34582     34584     34583     34585
     34587     34586     34588     34590     34589     34591     34593     34592     34594
     34596     34595     34597     34599     34598     34600     34602     34601     34603
     34605     34604     34606     34608     34607     34609     34611     34610     34612
     34614     34613     34615     34617     34616     34618     34620     34619     34621
     34623     34622     34624     34626     34625     34627     34629     34628     34630
     34632     34631     34633     34635     34634     34636     34638     34637     34639
     34641     34640     34642     34644     34643     34645     34647     34646     34648
     34650     34649     34651     34653     34652     34654     34656     34655     34657
     34659     34658     34660     34662     34661     34663     34665     34664     34666
     34668     34667     34669     34671     34670     34672     34674     34673     34675
     34677     34676     34678     34680     34679     34681     34683     34682     34684
     34686     34685     34687     34689     34688     34690     34692     34691     34693
     34695     34694     34696     34698     34697     34699     34701     34700     34702
     34704     34703     34705     34707     34706     34708     34710     34709     34711
     34713     34712     34714     34716     34715     34717     34719     34718     34720
     34722     34721     34723     34725     34724     34726     34728     34727     34729
     34731     34730     34732     34734     34733     34735     34737     34736     34738
     34740     34739     34741     34743     34742     34744     34746     34745     34747
     34749     34748     34750     34752     34751     34753     34755     34754     34756
     34758     34757     34759     34761     34760     34762     34764     34763     34765
     34767     34766     34768     34770     34769     34771     34773     34772     34774
     34776     34775     34777     34779     34778     34780     34782     34781     34783
     34785     34784     34786     34788     34787     34789     34791     34790     34792
     34794     34793     34795     34797     34796     34798     34800     34799     34801
     34803     34802     34804     34806     34805     34807     34809     34808     34810
     34812     34811     34813     34815     34814     34816     34818     34817     34819
     34821     34820     34822     34824     34823     34825     34827     34826     34828
     34830     34829     34831     34833     34832     34834     34836     34835     34837
     34839     34838     34840     34842     34841     34843     34845     34844     34846
     34848     34847     34849     34851     34850     34852     34854     34853     34855
     34857     34856     34858     34860     34859     34861     34863     34862     34864
     34866     34865     34867     34869     34868     34870     34872     34871     34873
     34875     34874     34876     34878     34877     34879     34881     34880     34882
     34884     34883     34885     34887     34886     34888     34890     34889     34891
     34893     34892     34894     34896     34895     34897     34899     34898     34900
     34902     34901     34903     34905     34904     34906     34908     34907     34909
     34911     34910     34912     34914     34913     34915     34917     34916     34918
     34920     34919     34921     34923     34922     34924     34926     34925     34927
     34929     34928     34930     34932     34931     34933     34935     34934     34936
     34938     34937     34939     34941     34940     34942     34944     34943     34945
     34947     34946     34948     34950     34949     34951     34953     34952     34954
     34956     34955     34957     34959     34958     34960     34962     34961     34963
     34965     34964     34966     34968     34967     34969     34971     34970     34972
     34974     34973     34975     34977     34976     34978     34980     34979     34981
     34983     34982     34984     34986     34985     34987     34989     34988     34990
     34992     34991     34993     34995     34994     34996     34998     34997     34999
     35001     35000     35002     35004     35003     35005     35007     35006     35008
     35010     35009     35011     35013     35012     35014     35016     35015     35017
     35019     35018     35020     35022     35021     35023     35025     35024     35026
     35028     35027     35029     35031     35030     35032     35034     35033     35035
     35037     35036     35038     35040     35039     35041     35043     35042     35044
     35046     35045     35047     35049     35048     35050     35052     35051     35053
     35055     35054     35056     35058     35057     35059     35061     35060     35062
     35064     35063     35065     35067     35066     35068     35070     35069     35071
     35073     35072     35074     35076     35075     35077     35079     35078     35080
     35082     35081     35083     35085     35084     35086     35088     35087     35089
     35091     35090     35092     35094     35093     35095     35097     35096     35098
     35100     35099     35101     35103     35102     35104     35106     35105     35107
     35109     35108     35110     35112     35111     35113     35115     35114     35116
     35118     35117     35119     35121     35120     35122     35124     35123     35125
     35127     35126     35128     35130     35129     35131     35133     35132     35134
     35136     35135     35137     35139     35138     35140     35142     35141     35143
     35145     35144     35146     35148     35147     35149     35151     35150     35152
     35154     35153     35155     35157     35156     35158     35160     35159     35161
     35163     35162     35164     35166     35165     35167     35169     35168     35170
     35172     35171     35173     35175     35174     35176     35178     35177     35179
     35181     35180     35182     35184     35183     35185     35187     35186     35188
     35190     35189     35191     35193     35192     35194     35196     35195     35197
     35199     35198     35200

     45997 !NPHI: dihedrals
         1         5         7         8         1         5         7         9
         1         5         7        10         1         5        15        16
         1         5        15        17         2         1         5         6
         2         1         5         7         2         1         5        15
         3         1         5         6         3         1         5         7
         3         1         5        15         4         1         5         6
         4         1         5         7         4         1         5        15
         5         7        10        11         5         7        10        12
         5        15        17        18         5        15        17        19
         6         5         7         8         6         5         7         9
         6         5         7        10         6         5        15        16
         6         5        15        17         7         5        15        16
         7         5        15        17         7        10        12        13
         7        10        12        14         8         7         5        15
         8         7        10        11         8         7        10        12
         9         7         5        15         9         7        10        11
         9         7        10        12        10         7         5        15
        11        10        12        13        11        10        12        14
        15        17        19        20        15        17        19        21
        15        17        19        29        16        15        17        18
        16        15        17        19        17        19        21        22
        17        19        21        23        17        19        21        24
        17        19        29        30        17        19        29        31
        18        17        19        20        18        17        19        21
        18        17        19        29        19        21        24        25
        19        21        24        26        19        29        31        32
        19        29        31        33        20        19        21        22
        20        19        21        23        20        19        21        24
        20        19        29        30        20        19        29        31
        21        19        29        30        21        19        29        31
        21        24        26        27        21        24        26        28
        22        21        19        29        22        21        24        25
        22        21        24        26        23        21        19        29
        23        21        24        25        23        21        24        26
        24        21        19        29        25        24        26        27
        25        24        26        28        29        31        33        34
        29        31        33        35        29        31        33        53
        30        29        31        32        30        29        31        33
        31        33        35        36        31        33        35        37
        31        33        35        38        31        33        53        54
        31        33        53        55        32        31        33        34
        32        31        33        35        32        31        33        53
        33        35        38        39        33        35        38        40
        33        35        38        41        33        53        55        56
        33        53        55        59        34        33        35        36
        34        33        35        37        34        33        35        38
        34        33        53        54        34        33        53        55
        35        33        53        54        35        33        53        55
        35        38        41        42        35        38        41        43
        35        38        41        44        36        35        33        53
        36        35        38        39        36        35        38        40
        36        35        38        41        37        35        33        53
        37        35        38        39        37        35        38        40
        37        35        38        41        38        35        33        53
        38        41        44        45        38        41        44        46
        39        38        41        42        39        38        41        43
        39        38        41        44        40        38        41        42
        40        38        41        43        40        38        41        44
        41        44        46        47        41        44        46        50
        42        41        44        45        42        41        44        46
        43        41        44        45        43        41        44        46
        44        46        47        48        44        46        47        49
        44        46        50        51        44        46        50        52
        45        44        46        47        45        44        46        50
        47        46        50        51        47        46        50        52
        48        47        46        50        49        47        46        50
        53        55        56        57        53        55        56        58
        53        55        56        64        53        55        59        60
        53        55        59        61        53        55        59        67
        54        53        55        56        54        53        55        59
        55        56        64        61        55        56        64        65
        55        56        64        66        55        59        61        62
        55        59        61        63        55        59        61        64
        55        59        67        68        55        59        67        69
        56        55        59        60        56        55        59        61
        56        55        59        67        56        64        61        59
        56        64        61        62        56        64        61        63
        57        56        55        59        57        56        64        61
        57        56        64        65        57        56        64        66
        58        56        55        59        58        56        64        61
        58        56        64        65        58        56        64        66
        59        55        56        64        59        61        64        65
        59        61        64        66        59        67        69        70
        59        67        69        71        60        59        61        62
        60        59        61        63        60        59        61        64
        60        59        67        68        60        59        67        69
        61        59        67        68        61        59        67        69
        62        61        59        67        62        61        64        65
        62        61        64        66        63        61        59        67
        63        61        64        65        63        61        64        66
        64        61        59        67        67        69        71        72
        67        69        71        73        67        69        71        81
        68        67        69        70        68        67        69        71
        69        71        73        74        69        71        73        75
        69        71        73        76        69        71        81        82
        69        71        81        83        70        69        71        72
        70        69        71        73        70        69        71        81
        71        73        76        77        71        73        76        78
        71        81        83        84        71        81        83        87
        72        71        73        74        72        71        73        75
        72        71        73        76        72        71        81        82
        72        71        81        83        73        71        81        82
        73        71        81        83        73        76        78        79
        73        76        78        80        74        73        71        81
        74        73        76        77        74        73        76        78
        75        73        71        81        75        73        76        77
        75        73        76        78        76        73        71        81
        77        76        78        79        77        76        78        80
        81        83        84        85        81        83        84        86
        81        83        84        92        81        83        87        88
        81        83        87        89        81        83        87        95
        82        81        83        84        82        81        83        87
        83        84        92        89        83        84        92        93
        83        84        92        94        83        87        89        90
        83        87        89        91        83        87        89        92
        83        87        95        96        83        87        95        97
        84        83        87        88        84        83        87        89
        84        83        87        95        84        92        89        87
        84        92        89        90        84        92        89        91
        85        84        83        87        85        84        92        89
        85        84        92        93        85        84        92        94
        86        84        83        87        86        84        92        89
        86        84        92        93        86        84        92        94
        87        83        84        92        87        89        92        93
        87        89        92        94        88        87        89        90
        88        87        89        91        88        87        89        92
        88        87        95        96        88        87        95        97
        89        87        95        96        89        87        95        97
        90        89        87        95        90        89        92        93
        90        89        92        94        91        89        87        95
        91        89        92        93        91        89        92        94
        92        89        87        95        98        99       114       115
        98        99       114       116        98        99       114       120
        99        98       102       103        99        98       102       104
        99        98       102       105        99        98       106       107
        99        98       106       108        99        98       106       109
        99        98       110       111        99        98       110       112
        99        98       110       113        99       114       120       117
       100        99        98       102       100        99        98       106
       100        99        98       110       100        99       114       115
       100        99       114       116       100        99       114       120
       101        99        98       102       101        99        98       106
       101        99        98       110       101        99       114       115
       101        99       114       116       101        99       114       120
       102        98        99       114       102        98       106       107
       102        98       106       108       102        98       106       109
       102        98       110       111       102        98       110       112
       102        98       110       113       103       102        98       106
       103       102        98       110       104       102        98       106
       104       102        98       110       105       102        98       106
       105       102        98       110       106        98        99       114
       106        98       110       111       106        98       110       112
       106        98       110       113       107       106        98       110
       108       106        98       110       109       106        98       110
       110        98        99       114       114       120       117       118
       114       120       117       119       114       120       117       121
       115       114       120       117       116       114       120       117
       117       121       122       123       117       121       122       124
       117       121       122       125       118       117       121       122
       119       117       121       122       120       117       121       122
       121       122       125       126       121       122       125       127
       121       122       125       133       122       125       127       128
       122       125       133       134       122       125       133       135
       122       125       133       136       123       122       125       126
       123       122       125       127       123       122       125       133
       124       122       125       126       124       122       125       127
       124       122       125       133       125       127       128       129
       125       127       128       130       125       133       136       137
       126       125       127       128       126       125       133       134
       126       125       133       135       126       125       133       136
       127       125       133       134       127       125       133       135
       127       125       133       136       127       128       130       131
       127       128       130       132       127       128       130       142
       128       127       125       133       128       130       142       143
       128       130       142       144       128       130       142       145
       129       128       130       131       129       128       130       132
       129       128       130       142       130       142       145       146
       130       142       145       147       130       142       145       148
       131       130       142       143       131       130       142       144
       131       130       142       145       132       130       142       143
       132       130       142       144       132       130       142       145
       133       136       137       138       133       136       137       139
       134       133       136       137       135       133       136       137
       136       137       139       140       136       137       139       141
       136       137       139       189       137       139       189       190
       137       139       189       191       137       139       189       192
       138       137       139       140       138       137       139       141
       138       137       139       189       139       189       192       193
       139       189       192       194       139       189       192       195
       140       139       189       190       140       139       189       191
       140       139       189       192       141       139       189       190
       141       139       189       191       141       139       189       192
       142       145       148       149       142       145       148       150
       142       145       148       151       143       142       145       146
       143       142       145       147       143       142       145       148
       144       142       145       146       144       142       145       147
       144       142       145       148       145       148       151       152
       145       148       151       153       145       148       151       154
       146       145       148       149       146       145       148       150
       146       145       148       151       147       145       148       149
       147       145       148       150       147       145       148       151
       148       151       154       155       148       151       154       156
       148       151       154       157       149       148       151       152
       149       148       151       153       149       148       151       154
       150       148       151       152       150       148       151       153
       150       148       151       154       151       154       157       158
       151       154       157       159       151       154       157       160
       152       151       154       155       152       151       154       156
       152       151       154       157       153       151       154       155
       153       151       154       156       153       151       154       157
       154       157       160       161       154       157       160       162
       155       154       157       158       155       154       157       159
       155       154       157       160       156       154       157       158
       156       154       157       159       156       154       157       160
       157       160       162       163       157       160       162       164
       158       157       160       161       158       157       160       162
       159       157       160       161       159       157       160       162
       160       162       164       165       160       162       164       166
       160       162       164       167       161       160       162       163
       161       160       162       164       162       164       167       168
       162       164       167       169       162       164       167       170
       163       162       164       165       163       162       164       166
       163       162       164       167       164       167       170       171
       164       167       170       172       164       167       170       173
       165       164       167       168       165       164       167       169
       165       164       167       170       166       164       167       168
       166       164       167       169       166       164       167       170
       167       170       173       174       167       170       173       175
       167       170       173       176       168       167       170       171
       168       167       170       172       168       167       170       173
       169       167       170       171       169       167       170       172
       169       167       170       173       170       173       176       177
       170       173       176       178       170       173       176       179
       171       170       173       174       171       170       173       175
       171       170       173       176       172       170       173       174
       172       170       173       175       172       170       173       176
       173       176       179       180       173       176       179       181
       173       176       179       182       174       173       176       177
       174       173       176       178       174       173       176       179
       175       173       176       177       175       173       176       178
       175       173       176       179       176       179       182       183
       176       179       182       184       176       179       182       185
       177       176       179       180       177       176       179       181
       177       176       179       182       178       176       179       180
       178       176       179       181       178       176       179       182
       179       182       185       186       179       182       185       187
       179       182       185       188       180       179       182       183
       180       179       182       184       180       179       182       185
       181       179       182       183       181       179       182       184
       181       179       182       185       183       182       185       186
       183       182       185       187       183       182       185       188
       184       182       185       186       184       182       185       187
       184       182       185       188       189       192       195       196
       189       192       195       197       189       192       195       198
       190       189       192       193       190       189       192       194
       190       189       192       195       191       189       192       193
       191       189       192       194       191       189       192       195
       192       195       198       199       192       195       198       200
       192       195       198       201       193       192       195       196
       193       192       195       197       193       192       195       198
       194       192       195       196       194       192       195       197
       194       192       195       198       195       198       201       202
       195       198       201       203       195       198       201       204
       196       195       198       199       196       195       198       200
       196       195       198       201       197       195       198       199
       197       195       198       200       197       195       198       201
       198       201       204       205       198       201       204       206
       198       201       204       207       199       198       201       202
       199       198       201       203       199       198       201       204
       200       198       201       202       200       198       201       203
       200       198       201       204       201       204       207       208
       201       204       207       209       201       204       207       210
       202       201       204       205       202       201       204       206
       202       201       204       207       203       201       204       205
       203       201       204       206       203       201       204       207
       204       207       210       211       204       207       210       212
       204       207       210       213       205       204       207       208
       205       204       207       209       205       204       207       210
       206       204       207       208       206       204       207       209
       206       204       207       210       207       210       213       214
       207       210       213       215       207       210       213       216
       208       207       210       211       208       207       210       212
       208       207       210       213       209       207       210       211
       209       207       210       212       209       207       210       213
       210       213       216       217       210       213       216       218
       210       213       216       219       211       210       213       214
       211       210       213       215       211       210       213       216
       212       210       213       214       212       210       213       215
       212       210       213       216       213       216       219       220
       213       216       219       221       213       216       219       222
       214       213       216       217       214       213       216       218
       214       213       216       219       215       213       216       217
       215       213       216       218       215       213       216       219
       216       219       222       223       216       219       222       224
       216       219       222       225       217       216       219       220
       217       216       219       221       217       216       219       222
       218       216       219       220       218       216       219       221
       218       216       219       222       219       222       225       226
       219       222       225       227       219       222       225       228
       220       219       222       223       220       219       222       224
       220       219       222       225       221       219       222       223
       221       219       222       224       221       219       222       225
       222       225       228       229       222       225       228       230
       222       225       228       231       223       222       225       226
       223       222       225       227       223       222       225       228
       224       222       225       226       224       222       225       227
       224       222       225       228       226       225       228       229
       226       225       228       230       226       225       228       231
       227       225       228       229       227       225       228       230
       227       225       228       231       232       233       248       249
       232       233       248       250       232       233       248       254
       233       232       236       237       233       232       236       238
       233       232       236       239       233       232       240       241
       233       232       240       242       233       232       240       243
       233       232       244       245       233       232       244       246
       233       232       244       247       233       248       254       251
       234       233       232       236       234       233       232       240
       234       233       232       244       234       233       248       249
       234       233       248       250       234       233       248       254
       235       233       232       236       235       233       232       240
       235       233       232       244       235       233       248       249
       235       233       248       250       235       233       248       254
       236       232       233       248       236       232       240       241
       236       232       240       242       236       232       240       243
       236       232       244       245       236       232       244       246
       236       232       244       247       237       236       232       240
       237       236       232       244       238       236       232       240
       238       236       232       244       239       236       232       240
       239       236       232       244       240       232       233       248
       240       232       244       245       240       232       244       246
       240       232       244       247       241       240       232       244
       242       240       232       244       243       240       232       244
       244       232       233       248       248       254       251       252
       248       254       251       253       248       254       251       255
       249       248       254       251       250       248       254       251
       251       255       256       257       251       255       256       258
       251       255       256       259       252       251       255       256
       253       251       255       256       254       251       255       256
       255       256       259       260       255       256       259       261
       255       256       259       267       256       259       261       262
       256       259       267       268       256       259       267       269
       256       259       267       270       257       256       259       260
       257       256       259       261       257       256       259       267
       258       256       259       260       258       256       259       261
       258       256       259       267       259       261       262       263
       259       261       262       264       259       267       270       271
       260       259       261       262       260       259       267       268
       260       259       267       269       260       259       267       270
       261       259       267       268       261       259       267       269
       261       259       267       270       261       262       264       265
       261       262       264       266       261       262       264       276
       262       261       259       267       262       264       276       277
       262       264       276       278       262       264       276       279
       263       262       264       265       263       262       264       266
       263       262       264       276       264       276       279       280
       264       276       279       281       264       276       279       282
       265       264       276       277       265       264       276       278
       265       264       276       279       266       264       276       277
       266       264       276       278       266       264       276       279
       267       270       271       272       267       270       271       273
       268       267       270       271       269       267       270       271
       270       271       273       274       270       271       273       275
       270       271       273       323       271       273       323       324
       271       273       323       325       271       273       323       326
       272       271       273       274       272       271       273       275
       272       271       273       323       273       323       326       327
       273       323       326       328       273       323       326       329
       274       273       323       324       274       273       323       325
       274       273       323       326       275       273       323       324
       275       273       323       325       275       273       323       326
       276       279       282       283       276       279       282       284
       276       279       282       285       277       276       279       280
       277       276       279       281       277       276       279       282
       278       276       279       280       278       276       279       281
       278       276       279       282       279       282       285       286
       279       282       285       287       279       282       285       288
       280       279       282       283       280       279       282       284
       280       279       282       285       281       279       282       283
       281       279       282       284       281       279       282       285
       282       285       288       289       282       285       288       290
       282       285       288       291       283       282       285       286
       283       282       285       287       283       282       285       288
       284       282       285       286       284       282       285       287
       284       282       285       288       285       288       291       292
       285       288       291       293       285       288       291       294
       286       285       288       289       286       285       288       290
       286       285       288       291       287       285       288       289
       287       285       288       290       287       285       288       291
       288       291       294       295       288       291       294       296
       289       288       291       292       289       288       291       293
       289       288       291       294       290       288       291       292
       290       288       291       293       290       288       291       294
       291       294       296       297       291       294       296       298
       292       291       294       295       292       291       294       296
       293       291       294       295       293       291       294       296
       294       296       298       299       294       296       298       300
       294       296       298       301       295       294       296       297
       295       294       296       298       296       298       301       302
       296       298       301       303       296       298       301       304
       297       296       298       299       297       296       298       300
       297       296       298       301       298       301       304       305
       298       301       304       306       298       301       304       307
       299       298       301       302       299       298       301       303
       299       298       301       304       300       298       301       302
       300       298       301       303       300       298       301       304
       301       304       307       308       301       304       307       309
       301       304       307       310       302       301       304       305
       302       301       304       306       302       301       304       307
       303       301       304       305       303       301       304       306
       303       301       304       307       304       307       310       311
       304       307       310       312       304       307       310       313
       305       304       307       308       305       304       307       309
       305       304       307       310       306       304       307       308
       306       304       307       309       306       304       307       310
       307       310       313       314       307       310       313       315
       307       310       313       316       308       307       310       311
       308       307       310       312       308       307       310       313
       309       307       310       311       309       307       310       312
       309       307       310       313       310       313       316       317
       310       313       316       318       310       313       316       319
       311       310       313       314       311       310       313       315
       311       310       313       316       312       310       313       314
       312       310       313       315       312       310       313       316
       313       316       319       320       313       316       319       321
       313       316       319       322       314       313       316       317
       314       313       316       318       314       313       316       319
       315       313       316       317       315       313       316       318
       315       313       316       319       317       316       319       320
       317       316       319       321       317       316       319       322
       318       316       319       320       318       316       319       321
       318       316       319       322       323       326       329       330
       323       326       329       331       323       326       329       332
       324       323       326       327       324       323       326       328
       324       323       326       329       325       323       326       327
       325       323       326       328       325       323       326       329
       326       329       332       333       326       329       332       334
       326       329       332       335       327       326       329       330
       327       326       329       331       327       326       329       332
       328       326       329       330       328       326       329       331
       328       326       329       332       329       332       335       336
       329       332       335       337       329       332       335       338
       330       329       332       333       330       329       332       334
       330       329       332       335       331       329       332       333
       331       329       332       334       331       329       332       335
       332       335       338       339       332       335       338       340
       332       335       338       341       333       332       335       336
       333       332       335       337       333       332       335       338
       334       332       335       336       334       332       335       337
       334       332       335       338       335       338       341       342
       335       338       341       343       335       338       341       344
       336       335       338       339       336       335       338       340
       336       335       338       341       337       335       338       339
       337       335       338       340       337       335       338       341
       338       341       344       345       338       341       344       346
       338       341       344       347       339       338       341       342
       339       338       341       343       339       338       341       344
       340       338       341       342       340       338       341       343
       340       338       341       344       341       344       347       348
       341       344       347       349       341       344       347       350
       342       341       344       345       342       341       344       346
       342       341       344       347       343       341       344       345
       343       341       344       346       343       341       344       347
       344       347       350       351       344       347       350       352
       344       347       350       353       345       344       347       348
       345       344       347       349       345       344       347       350
       346       344       347       348       346       344       347       349
       346       344       347       350       347       350       353       354
       347       350       353       355       347       350       353       356
       348       347       350       351       348       347       350       352
       348       347       350       353       349       347       350       351
       349       347       350       352       349       347       350       353
       350       353       356       357       350       353       356       358
       350       353       356       359       351       350       353       354
       351       350       353       355       351       350       353       356
       352       350       353       354       352       350       353       355
       352       350       353       356       353       356       359       360
       353       356       359       361       353       356       359       362
       354       353       356       357       354       353       356       358
       354       353       356       359       355       353       356       357
       355       353       356       358       355       353       356       359
       356       359       362       363       356       359       362       364
       356       359       362       365       357       356       359       360
       357       356       359       361       357       356       359       362
       358       356       359       360       358       356       359       361
       358       356       359       362       360       359       362       363
       360       359       362       364       360       359       362       365
       361       359       362       363       361       359       362       364
       361       359       362       365       366       367       382       383
       366       367       382       384       366       367       382       388
       367       366       370       371       367       366       370       372
       367       366       370       373       367       366       374       375
       367       366       374       376       367       366       374       377
       367       366       378       379       367       366       378       380
       367       366       378       381       367       382       388       385
       368       367       366       370       368       367       366       374
       368       367       366       378       368       367       382       383
       368       367       382       384       368       367       382       388
       369       367       366       370       369       367       366       374
       369       367       366       378       369       367       382       383
       369       367       382       384       369       367       382       388
       370       366       367       382       370       366       374       375
       370       366       374       376       370       366       374       377
       370       366       378       379       370       366       378       380
       370       366       378       381       371       370       366       374
       371       370       366       378       372       370       366       374
       372       370       366       378       373       370       366       374
       373       370       366       378       374       366       367       382
       374       366       378       379       374       366       378       380
       374       366       378       381       375       374       366       378
       376       374       366       378       377       374       366       378
       378       366       367       382       382       388       385       386
       382       388       385       387       382       388       385       389
       383       382       388       385       384       382       388       385
       385       389       390       391       385       389       390       392
       385       389       390       393       386       385       389       390
       387       385       389       390       388       385       389       390
       389       390       393       394       389       390       393       395
       389       390       393       401       390       393       395       396
       390       393       401       402       390       393       401       403
       390       393       401       404       391       390       393       394
       391       390       393       395       391       390       393       401
       392       390       393       394       392       390       393       395
       392       390       393       401       393       395       396       397
       393       395       396       398       393       401       404       405
       394       393       395       396       394       393       401       402
       394       393       401       403       394       393       401       404
       395       393       401       402       395       393       401       403
       395       393       401       404       395       396       398       399
       395       396       398       400       395       396       398       410
       396       395       393       401       396       398       410       411
       396       398       410       412       396       398       410       413
       397       396       398       399       397       396       398       400
       397       396       398       410       398       410       413       414
       398       410       413       415       398       410       413       416
       399       398       410       411       399       398       410       412
       399       398       410       413       400       398       410       411
       400       398       410       412       400       398       410       413
       401       404       405       406       401       404       405       407
       402       401       404       405       403       401       404       405
       404       405       407       408       404       405       407       409
       404       405       407       457       405       407       457       458
       405       407       457       459       405       407       457       460
       406       405       407       408       406       405       407       409
       406       405       407       457       407       457       460       461
       407       457       460       462       407       457       460       463
       408       407       457       458       408       407       457       459
       408       407       457       460       409       407       457       458
       409       407       457       459       409       407       457       460
       410       413       416       417       410       413       416       418
       410       413       416       419       411       410       413       414
       411       410       413       415       411       410       413       416
       412       410       413       414       412       410       413       415
       412       410       413       416       413       416       419       420
       413       416       419       421       413       416       419       422
       414       413       416       417       414       413       416       418
       414       413       416       419       415       413       416       417
       415       413       416       418       415       413       416       419
       416       419       422       423       416       419       422       424
       416       419       422       425       417       416       419       420
       417       416       419       421       417       416       419       422
       418       416       419       420       418       416       419       421
       418       416       419       422       419       422       425       426
       419       422       425       427       419       422       425       428
       420       419       422       423       420       419       422       424
       420       419       422       425       421       419       422       423
       421       419       422       424       421       419       422       425
       422       425       428       429       422       425       428       430
       423       422       425       426       423       422       425       427
       423       422       425       428       424       422       425       426
       424       422       425       427       424       422       425       428
       425       428       430       431       425       428       430       432
       426       425       428       429       426       425       428       430
       427       425       428       429       427       425       428       430
       428       430       432       433       428       430       432       434
       428       430       432       435       429       428       430       431
       429       428       430       432       430       432       435       436
       430       432       435       437       430       432       435       438
       431       430       432       433       431       430       432       434
       431       430       432       435       432       435       438       439
       432       435       438       440       432       435       438       441
       433       432       435       436       433       432       435       437
       433       432       435       438       434       432       435       436
       434       432       435       437       434       432       435       438
       435       438       441       442       435       438       441       443
       435       438       441       444       436       435       438       439
       436       435       438       440       436       435       438       441
       437       435       438       439       437       435       438       440
       437       435       438       441       438       441       444       445
       438       441       444       446       438       441       444       447
       439       438       441       442       439       438       441       443
       439       438       441       444       440       438       441       442
       440       438       441       443       440       438       441       444
       441       444       447       448       441       444       447       449
       441       444       447       450       442       441       444       445
       442       441       444       446       442       441       444       447
       443       441       444       445       443       441       444       446
       443       441       444       447       444       447       450       451
       444       447       450       452       444       447       450       453
       445       444       447       448       445       444       447       449
       445       444       447       450       446       444       447       448
       446       444       447       449       446       444       447       450
       447       450       453       454       447       450       453       455
       447       450       453       456       448       447       450       451
       448       447       450       452       448       447       450       453
       449       447       450       451       449       447       450       452
       449       447       450       453       451       450       453       454
       451       450       453       455       451       450       453       456
       452       450       453       454       452       450       453       455
       452       450       453       456       457       460       463       464
       457       460       463       465       457       460       463       466
       458       457       460       461       458       457       460       462
       458       457       460       463       459       457       460       461
       459       457       460       462       459       457       460       463
       460       463       466       467       460       463       466       468
       460       463       466       469       461       460       463       464
       461       460       463       465       461       460       463       466
       462       460       463       464       462       460       463       465
       462       460       463       466       463       466       469       470
       463       466       469       471       463       466       469       472
       464       463       466       467       464       463       466       468
       464       463       466       469       465       463       466       467
       465       463       466       468       465       463       466       469
       466       469       472       473       466       469       472       474
       466       469       472       475       467       466       469       470
       467       466       469       471       467       466       469       472
       468       466       469       470       468       466       469       471
       468       466       469       472       469       472       475       476
       469       472       475       477       469       472       475       478
       470       469       472       473       470       469       472       474
       470       469       472       475       471       469       472       473
       471       469       472       474       471       469       472       475
       472       475       478       479       472       475       478       480
       472       475       478       481       473       472       475       476
       473       472       475       477       473       472       475       478
       474       472       475       476       474       472       475       477
       474       472       475       478       475       478       481       482
       475       478       481       483       475       478       481       484
       476       475       478       479       476       475       478       480
       476       475       478       481       477       475       478       479
       477       475       478       480       477       475       478       481
       478       481       484       485       478       481       484       486
       478       481       484       487       479       478       481       482
       479       478       481       483       479       478       481       484
       480       478       481       482       480       478       481       483
       480       478       481       484       481       484       487       488
       481       484       487       489       481       484       487       490
       482       481       484       485       482       481       484       486
       482       481       484       487       483       481       484       485
       483       481       484       486       483       481       484       487
       484       487       490       491       484       487       490       492
       484       487       490       493       485       484       487       488
       485       484       487       489       485       484       487       490
       486       484       487       488       486       484       487       489
       486       484       487       490       487       490       493       494
       487       490       493       495       487       490       493       496
       488       487       490       491       488       487       490       492
       488       487       490       493       489       487       490       491
       489       487       490       492       489       487       490       493
       490       493       496       497       490       493       496       498
       490       493       496       499       491       490       493       494
       491       490       493       495       491       490       493       496
       492       490       493       494       492       490       493       495
       492       490       493       496       494       493       496       497
       494       493       496       498       494       493       496       499
       495       493       496       497       495       493       496       498
       495       493       496       499       500       501       516       517
       500       501       516       518       500       501       516       522
       501       500       504       505       501       500       504       506
       501       500       504       507       501       500       508       509
       501       500       508       510       501       500       508       511
       501       500       512       513       501       500       512       514
       501       500       512       515       501       516       522       519
       502       501       500       504       502       501       500       508
       502       501       500       512       502       501       516       517
       502       501       516       518       502       501       516       522
       503       501       500       504       503       501       500       508
       503       501       500       512       503       501       516       517
       503       501       516       518       503       501       516       522
       504       500       501       516       504       500       508       509
       504       500       508       510       504       500       508       511
       504       500       512       513       504       500       512       514
       504       500       512       515       505       504       500       508
       505       504       500       512       506       504       500       508
       506       504       500       512       507       504       500       508
       507       504       500       512       508       500       501       516
       508       500       512       513       508       500       512       514
       508       500       512       515       509       508       500       512
       510       508       500       512       511       508       500       512
       512       500       501       516       516       522       519       520
       516       522       519       521       516       522       519       523
       517       516       522       519       518       516       522       519
       519       523       524       525       519       523       524       526
       519       523       524       527       520       519       523       524
       521       519       523       524       522       519       523       524
       523       524       527       528       523       524       527       529
       523       524       527       535       524       527       529       530
       524       527       535       536       524       527       535       537
       524       527       535       538       525       524       527       528
       525       524       527       529       525       524       527       535
       526       524       527       528       526       524       527       529
       526       524       527       535       527       529       530       531
       527       529       530       532       527       535       538       539
       528       527       529       530       528       527       535       536
       528       527       535       537       528       527       535       538
       529       527       535       536       529       527       535       537
       529       527       535       538       529       530       532       533
       529       530       532       534       529       530       532       544
       530       529       527       535       530       532       544       545
       530       532       544       546       530       532       544       547
       531       530       532       533       531       530       532       534
       531       530       532       544       532       544       547       548
       532       544       547       549       532       544       547       550
       533       532       544       545       533       532       544       546
       533       532       544       547       534       532       544       545
       534       532       544       546       534       532       544       547
       535       538       539       540       535       538       539       541
       536       535       538       539       537       535       538       539
       538       539       541       542       538       539       541       543
       538       539       541       591       539       541       591       592
       539       541       591       593       539       541       591       594
       540       539       541       542       540       539       541       543
       540       539       541       591       541       591       594       595
       541       591       594       596       541       591       594       597
       542       541       591       592       542       541       591       593
       542       541       591       594       543       541       591       592
       543       541       591       593       543       541       591       594
       544       547       550       551       544       547       550       552
       544       547       550       553       545       544       547       548
       545       544       547       549       545       544       547       550
       546       544       547       548       546       544       547       549
       546       544       547       550       547       550       553       554
       547       550       553       555       547       550       553       556
       548       547       550       551       548       547       550       552
       548       547       550       553       549       547       550       551
       549       547       550       552       549       547       550       553
       550       553       556       557       550       553       556       558
       550       553       556       559       551       550       553       554
       551       550       553       555       551       550       553       556
       552       550       553       554       552       550       553       555
       552       550       553       556       553       556       559       560
       553       556       559       561       553       556       559       562
       554       553       556       557       554       553       556       558
       554       553       556       559       555       553       556       557
       555       553       556       558       555       553       556       559
       556       559       562       563       556       559       562       564
       557       556       559       560       557       556       559       561
       557       556       559       562       558       556       559       560
       558       556       559       561       558       556       559       562
       559       562       564       565       559       562       564       566
       560       559       562       563       560       559       562       564
       561       559       562       563       561       559       562       564
       562       564       566       567       562       564       566       568
       562       564       566       569       563       562       564       565
       563       562       564       566       564       566       569       570
       564       566       569       571       564       566       569       572
       565       564       566       567       565       564       566       568
       565       564       566       569       566       569       572       573
       566       569       572       574       566       569       572       575
       567       566       569       570       567       566       569       571
       567       566       569       572       568       566       569       570
       568       566       569       571       568       566       569       572
       569       572       575       576       569       572       575       577
       569       572       575       578       570       569       572       573
       570       569       572       574       570       569       572       575
       571       569       572       573       571       569       572       574
       571       569       572       575       572       575       578       579
       572       575       578       580       572       575       578       581
       573       572       575       576       573       572       575       577
       573       572       575       578       574       572       575       576
       574       572       575       577       574       572       575       578
       575       578       581       582       575       578       581       583
       575       578       581       584       576       575       578       579
       576       575       578       580       576       575       578       581
       577       575       578       579       577       575       578       580
       577       575       578       581       578       581       584       585
       578       581       584       586       578       581       584       587
       579       578       581       582       579       578       581       583
       579       578       581       584       580       578       581       582
       580       578       581       583       580       578       581       584
       581       584       587       588       581       584       587       589
       581       584       587       590       582       581       584       585
       582       581       584       586       582       581       584       587
       583       581       584       585       583       581       584       586
       583       581       584       587       585       584       587       588
       585       584       587       589       585       584       587       590
       586       584       587       588       586       584       587       589
       586       584       587       590       591       594       597       598
       591       594       597       599       591       594       597       600
       592       591       594       595       592       591       594       596
       592       591       594       597       593       591       594       595
       593       591       594       596       593       591       594       597
       594       597       600       601       594       597       600       602
       594       597       600       603       595       594       597       598
       595       594       597       599       595       594       597       600
       596       594       597       598       596       594       597       599
       596       594       597       600       597       600       603       604
       597       600       603       605       597       600       603       606
       598       597       600       601       598       597       600       602
       598       597       600       603       599       597       600       601
       599       597       600       602       599       597       600       603
       600       603       606       607       600       603       606       608
       600       603       606       609       601       600       603       604
       601       600       603       605       601       600       603       606
       602       600       603       604       602       600       603       605
       602       600       603       606       603       606       609       610
       603       606       609       611       603       606       609       612
       604       603       606       607       604       603       606       608
       604       603       606       609       605       603       606       607
       605       603       606       608       605       603       606       609
       606       609       612       613       606       609       612       614
       606       609       612       615       607       606       609       610
       607       606       609       611       607       606       609       612
       608       606       609       610       608       606       609       611
       608       606       609       612       609       612       615       616
       609       612       615       617       609       612       615       618
       610       609       612       613       610       609       612       614
       610       609       612       615       611       609       612       613
       611       609       612       614       611       609       612       615
       612       615       618       619       612       615       618       620
       612       615       618       621       613       612       615       616
       613       612       615       617       613       612       615       618
       614       612       615       616       614       612       615       617
       614       612       615       618       615       618       621       622
       615       618       621       623       615       618       621       624
       616       615       618       619       616       615       618       620
       616       615       618       621       617       615       618       619
       617       615       618       620       617       615       618       621
       618       621       624       625       618       621       624       626
       618       621       624       627       619       618       621       622
       619       618       621       623       619       618       621       624
       620       618       621       622       620       618       621       623
       620       618       621       624       621       624       627       628
       621       624       627       629       621       624       627       630
       622       621       624       625       622       621       624       626
       622       621       624       627       623       621       624       625
       623       621       624       626       623       621       624       627
       624       627       630       631       624       627       630       632
       624       627       630       633       625       624       627       628
       625       624       627       629       625       624       627       630
       626       624       627       628       626       624       627       629
       626       624       627       630       628       627       630       631
       628       627       630       632       628       627       630       633
       629       627       630       631       629       627       630       632
       629       627       630       633       634       635       650       651
       634       635       650       652       634       635       650       656
       635       634       638       639       635       634       638       640
       635       634       638       641       635       634       642       643
       635       634       642       644       635       634       642       645
       635       634       646       647       635       634       646       648
       635       634       646       649       635       650       656       653
       636       635       634       638       636       635       634       642
       636       635       634       646       636       635       650       651
       636       635       650       652       636       635       650       656
       637       635       634       638       637       635       634       642
       637       635       634       646       637       635       650       651
       637       635       650       652       637       635       650       656
       638       634       635       650       638       634       642       643
       638       634       642       644       638       634       642       645
       638       634       646       647       638       634       646       648
       638       634       646       649       639       638       634       642
       639       638       634       646       640       638       634       642
       640       638       634       646       641       638       634       642
       641       638       634       646       642       634       635       650
       642       634       646       647       642       634       646       648
       642       634       646       649       643       642       634       646
       644       642       634       646       645       642       634       646
       646       634       635       650       650       656       653       654
       650       656       653       655       650       656       653       657
       651       650       656       653       652       650       656       653
       653       657       658       659       653       657       658       660
       653       657       658       661       654       653       657       658
       655       653       657       658       656       653       657       658
       657       658       661       662       657       658       661       663
       657       658       661       669       658       661       663       664
       658       661       669       670       658       661       669       671
       658       661       669       672       659       658       661       662
       659       658       661       663       659       658       661       669
       660       658       661       662       660       658       661       663
       660       658       661       669       661       663       664       665
       661       663       664       666       661       669       672       673
       662       661       663       664       662       661       669       670
       662       661       669       671       662       661       669       672
       663       661       669       670       663       661       669       671
       663       661       669       672       663       664       666       667
       663       664       666       668       663       664       666       678
       664       663       661       669       664       666       678       679
       664       666       678       680       664       666       678       681
       665       664       666       667       665       664       666       668
       665       664       666       678       666       678       681       682
       666       678       681       683       666       678       681       684
       667       666       678       679       667       666       678       680
       667       666       678       681       668       666       678       679
       668       666       678       680       668       666       678       681
       669       672       673       674       669       672       673       675
       670       669       672       673       671       669       672       673
       672       673       675       676       672       673       675       677
       672       673       675       725       673       675       725       726
       673       675       725       727       673       675       725       728
       674       673       675       676       674       673       675       677
       674       673       675       725       675       725       728       729
       675       725       728       730       675       725       728       731
       676       675       725       726       676       675       725       727
       676       675       725       728       677       675       725       726
       677       675       725       727       677       675       725       728
       678       681       684       685       678       681       684       686
       678       681       684       687       679       678       681       682
       679       678       681       683       679       678       681       684
       680       678       681       682       680       678       681       683
       680       678       681       684       681       684       687       688
       681       684       687       689       681       684       687       690
       682       681       684       685       682       681       684       686
       682       681       684       687       683       681       684       685
       683       681       684       686       683       681       684       687
       684       687       690       691       684       687       690       692
       684       687       690       693       685       684       687       688
       685       684       687       689       685       684       687       690
       686       684       687       688       686       684       687       689
       686       684       687       690       687       690       693       694
       687       690       693       695       687       690       693       696
       688       687       690       691       688       687       690       692
       688       687       690       693       689       687       690       691
       689       687       690       692       689       687       690       693
       690       693       696       697       690       693       696       698
       691       690       693       694       691       690       693       695
       691       690       693       696       692       690       693       694
       692       690       693       695       692       690       693       696
       693       696       698       699       693       696       698       700
       694       693       696       697       694       693       696       698
       695       693       696       697       695       693       696       698
       696       698       700       701       696       698       700       702
       696       698       700       703       697       696       698       699
       697       696       698       700       698       700       703       704
       698       700       703       705       698       700       703       706
       699       698       700       701       699       698       700       702
       699       698       700       703       700       703       706       707
       700       703       706       708       700       703       706       709
       701       700       703       704       701       700       703       705
       701       700       703       706       702       700       703       704
       702       700       703       705       702       700       703       706
       703       706       709       710       703       706       709       711
       703       706       709       712       704       703       706       707
       704       703       706       708       704       703       706       709
       705       703       706       707       705       703       706       708
       705       703       706       709       706       709       712       713
       706       709       712       714       706       709       712       715
       707       706       709       710       707       706       709       711
       707       706       709       712       708       706       709       710
       708       706       709       711       708       706       709       712
       709       712       715       716       709       712       715       717
       709       712       715       718       710       709       712       713
       710       709       712       714       710       709       712       715
       711       709       712       713       711       709       712       714
       711       709       712       715       712       715       718       719
       712       715       718       720       712       715       718       721
       713       712       715       716       713       712       715       717
       713       712       715       718       714       712       715       716
       714       712       715       717       714       712       715       718
       715       718       721       722       715       718       721       723
       715       718       721       724       716       715       718       719
       716       715       718       720       716       715       718       721
       717       715       718       719       717       715       718       720
       717       715       718       721       719       718       721       722
       719       718       721       723       719       718       721       724
       720       718       721       722       720       718       721       723
       720       718       721       724       725       728       731       732
       725       728       731       733       725       728       731       734
       726       725       728       729       726       725       728       730
       726       725       728       731       727       725       728       729
       727       725       728       730       727       725       728       731
       728       731       734       735       728       731       734       736
       728       731       734       737       729       728       731       732
       729       728       731       733       729       728       731       734
       730       728       731       732       730       728       731       733
       730       728       731       734       731       734       737       738
       731       734       737       739       731       734       737       740
       732       731       734       735       732       731       734       736
       732       731       734       737       733       731       734       735
       733       731       734       736       733       731       734       737
       734       737       740       741       734       737       740       742
       734       737       740       743       735       734       737       738
       735       734       737       739       735       734       737       740
       736       734       737       738       736       734       737       739
       736       734       737       740       737       740       743       744
       737       740       743       745       737       740       743       746
       738       737       740       741       738       737       740       742
       738       737       740       743       739       737       740       741
       739       737       740       742       739       737       740       743
       740       743       746       747       740       743       746       748
       740       743       746       749       741       740       743       744
       741       740       743       745       741       740       743       746
       742       740       743       744       742       740       743       745
       742       740       743       746       743       746       749       750
       743       746       749       751       743       746       749       752
       744       743       746       747       744       743       746       748
       744       743       746       749       745       743       746       747
       745       743       746       748       745       743       746       749
       746       749       752       753       746       749       752       754
       746       749       752       755       747       746       749       750
       747       746       749       751       747       746       749       752
       748       746       749       750       748       746       749       751
       748       746       749       752       749       752       755       756
       749       752       755       757       749       752       755       758
       750       749       752       753       750       749       752       754
       750       749       752       755       751       749       752       753
       751       749       752       754       751       749       752       755
       752       755       758       759       752       755       758       760
       752       755       758       761       753       752       755       756
       753       752       755       757       753       752       755       758
       754       752       755       756       754       752       755       757
       754       752       755       758       755       758       761       762
       755       758       761       763       755       758       761       764
       756       755       758       759       756       755       758       760
       756       755       758       761       757       755       758       759
       757       755       758       760       757       755       758       761
       758       761       764       765       758       761       764       766
       758       761       764       767       759       758       761       762
       759       758       761       763       759       758       761       764
       760       758       761       762       760       758       761       763
       760       758       761       764       762       761       764       765
       762       761       764       766       762       761       764       767
       763       761       764       765       763       761       764       766
       763       761       764       767       768       769       784       785
       768       769       784       786       768       769       784       790
       769       768       772       773       769       768       772       774
       769       768       772       775       769       768       776       777
       769       768       776       778       769       768       776       779
       769       768       780       781       769       768       780       782
       769       768       780       783       769       784       790       787
       770       769       768       772       770       769       768       776
       770       769       768       780       770       769       784       785
       770       769       784       786       770       769       784       790
       771       769       768       772       771       769       768       776
       771       769       768       780       771       769       784       785
       771       769       784       786       771       769       784       790
       772       768       769       784       772       768       776       777
       772       768       776       778       772       768       776       779
       772       768       780       781       772       768       780       782
       772       768       780       783       773       772       768       776
       773       772       768       780       774       772       768       776
       774       772       768       780       775       772       768       776
       775       772       768       780       776       768       769       784
       776       768       780       781       776       768       780       782
       776       768       780       783       777       776       768       780
       778       776       768       780       779       776       768       780
       780       768       769       784       784       790       787       788
       784       790       787       789       784       790       787       791
       785       784       790       787       786       784       790       787
       787       791       792       793       787       791       792       794
       787       791       792       795       788       787       791       792
       789       787       791       792       790       787       791       792
       791       792       795       796       791       792       795       797
       791       792       795       803       792       795       797       798
       792       795       803       804       792       795       803       805
       792       795       803       806       793       792       795       796
       793       792       795       797       793       792       795       803
       794       792       795       796       794       792       795       797
       794       792       795       803       795       797       798       799
       795       797       798       800       795       803       806       807
       796       795       797       798       796       795       803       804
       796       795       803       805       796       795       803       806
       797       795       803       804       797       795       803       805
       797       795       803       806       797       798       800       801
       797       798       800       802       797       798       800       812
       798       797       795       803       798       800       812       813
       798       800       812       814       798       800       812       815
       799       798       800       801       799       798       800       802
       799       798       800       812       800       812       815       816
       800       812       815       817       800       812       815       818
       801       800       812       813       801       800       812       814
       801       800       812       815       802       800       812       813
       802       800       812       814       802       800       812       815
       803       806       807       808       803       806       807       809
       804       803       806       807       805       803       806       807
       806       807       809       810       806       807       809       811
       806       807       809       859       807       809       859       860
       807       809       859       861       807       809       859       862
       808       807       809       810       808       807       809       811
       808       807       809       859       809       859       862       863
       809       859       862       864       809       859       862       865
       810       809       859       860       810       809       859       861
       810       809       859       862       811       809       859       860
       811       809       859       861       811       809       859       862
       812       815       818       819       812       815       818       820
       812       815       818       821       813       812       815       816
       813       812       815       817       813       812       815       818
       814       812       815       816       814       812       815       817
       814       812       815       818       815       818       821       822
       815       818       821       823       815       818       821       824
       816       815       818       819       816       815       818       820
       816       815       818       821       817       815       818       819
       817       815       818       820       817       815       818       821
       818       821       824       825       818       821       824       826
       818       821       824       827       819       818       821       822
       819       818       821       823       819       818       821       824
       820       818       821       822       820       818       821       823
       820       818       821       824       821       824       827       828
       821       824       827       829       821       824       827       830
       822       821       824       825       822       821       824       826
       822       821       824       827       823       821       824       825
       823       821       824       826       823       821       824       827
       824       827       830       831       824       827       830       832
       825       824       827       828       825       824       827       829
       825       824       827       830       826       824       827       828
       826       824       827       829       826       824       827       830
       827       830       832       833       827       830       832       834
       828       827       830       831       828       827       830       832
       829       827       830       831       829       827       830       832
       830       832       834       835       830       832       834       836
       830       832       834       837       831       830       832       833
       831       830       832       834       832       834       837       838
       832       834       837       839       832       834       837       840
       833       832       834       835       833       832       834       836
       833       832       834       837       834       837       840       841
       834       837       840       842       834       837       840       843
       835       834       837       838       835       834       837       839
       835       834       837       840       836       834       837       838
       836       834       837       839       836       834       837       840
       837       840       843       844       837       840       843       845
       837       840       843       846       838       837       840       841
       838       837       840       842       838       837       840       843
       839       837       840       841       839       837       840       842
       839       837       840       843       840       843       846       847
       840       843       846       848       840       843       846       849
       841       840       843       844       841       840       843       845
       841       840       843       846       842       840       843       844
       842       840       843       845       842       840       843       846
       843       846       849       850       843       846       849       851
       843       846       849       852       844       843       846       847
       844       843       846       848       844       843       846       849
       845       843       846       847       845       843       846       848
       845       843       846       849       846       849       852       853
       846       849       852       854       846       849       852       855
       847       846       849       850       847       846       849       851
       847       846       849       852       848       846       849       850
       848       846       849       851       848       846       849       852
       849       852       855       856       849       852       855       857
       849       852       855       858       850       849       852       853
       850       849       852       854       850       849       852       855
       851       849       852       853       851       849       852       854
       851       849       852       855       853       852       855       856
       853       852       855       857       853       852       855       858
       854       852       855       856       854       852       855       857
       854       852       855       858       859       862       865       866
       859       862       865       867       859       862       865       868
       860       859       862       863       860       859       862       864
       860       859       862       865       861       859       862       863
       861       859       862       864       861       859       862       865
       862       865       868       869       862       865       868       870
       862       865       868       871       863       862       865       866
       863       862       865       867       863       862       865       868
       864       862       865       866       864       862       865       867
       864       862       865       868       865       868       871       872
       865       868       871       873       865       868       871       874
       866       865       868       869       866       865       868       870
       866       865       868       871       867       865       868       869
       867       865       868       870       867       865       868       871
       868       871       874       875       868       871       874       876
       868       871       874       877       869       868       871       872
       869       868       871       873       869       868       871       874
       870       868       871       872       870       868       871       873
       870       868       871       874       871       874       877       878
       871       874       877       879       871       874       877       880
       872       871       874       875       872       871       874       876
       872       871       874       877       873       871       874       875
       873       871       874       876       873       871       874       877
       874       877       880       881       874       877       880       882
       874       877       880       883       875       874       877       878
       875       874       877       879       875       874       877       880
       876       874       877       878       876       874       877       879
       876       874       877       880       877       880       883       884
       877       880       883       885       877       880       883       886
       878       877       880       881       878       877       880       882
       878       877       880       883       879       877       880       881
       879       877       880       882       879       877       880       883
       880       883       886       887       880       883       886       888
       880       883       886       889       881       880       883       884
       881       880       883       885       881       880       883       886
       882       880       883       884       882       880       883       885
       882       880       883       886       883       886       889       890
       883       886       889       891       883       886       889       892
       884       883       886       887       884       883       886       888
       884       883       886       889       885       883       886       887
       885       883       886       888       885       883       886       889
       886       889       892       893       886       889       892       894
       886       889       892       895       887       886       889       890
       887       886       889       891       887       886       889       892
       888       886       889       890       888       886       889       891
       888       886       889       892       889       892       895       896
       889       892       895       897       889       892       895       898
       890       889       892       893       890       889       892       894
       890       889       892       895       891       889       892       893
       891       889       892       894       891       889       892       895
       892       895       898       899       892       895       898       900
       892       895       898       901       893       892       895       896
       893       892       895       897       893       892       895       898
       894       892       895       896       894       892       895       897
       894       892       895       898       896       895       898       899
       896       895       898       900       896       895       898       901
       897       895       898       899       897       895       898       900
       897       895       898       901       902       906       908       909
       902       906       908       910       902       906       911       912
       902       906       911       913       902       906       911       917
       903       902       906       907       903       902       906       908
       903       902       906       911       904       902       906       907
       904       902       906       908       904       902       906       911
       905       902       906       907       905       902       906       908
       905       902       906       911       906       911       917       914
       907       906       908       909       907       906       908       910
       907       906       911       912       907       906       911       913
       907       906       911       917       908       906       911       912
       908       906       911       913       908       906       911       917
       909       908       906       911       910       908       906       911
       911       917       914       915       911       917       914       916
       911       917       914       918       912       911       917       914
       913       911       917       914       914       918       919       920
       914       918       919       921       914       918       919       922
       915       914       918       919       916       914       918       919
       917       914       918       919       918       919       922       923
       918       919       922       924       918       919       922       930
       919       922       924       925       919       922       930       931
       919       922       930       932       919       922       930       933
       920       919       922       923       920       919       922       924
       920       919       922       930       921       919       922       923
       921       919       922       924       921       919       922       930
       922       924       925       926       922       924       925       927
       922       930       933       934       923       922       924       925
       923       922       930       931       923       922       930       932
       923       922       930       933       924       922       930       931
       924       922       930       932       924       922       930       933
       924       925       927       928       924       925       927       929
       924       925       927       939       925       924       922       930
       925       927       939       940       925       927       939       941
       925       927       939       942       926       925       927       928
       926       925       927       929       926       925       927       939
       927       939       942       943       927       939       942       944
       927       939       942       945       928       927       939       940
       928       927       939       941       928       927       939       942
       929       927       939       940       929       927       939       941
       929       927       939       942       930       933       934       935
       930       933       934       936       931       930       933       934
       932       930       933       934       933       934       936       937
       933       934       936       938       933       934       936       986
       934       936       986       987       934       936       986       988
       934       936       986       989       935       934       936       937
       935       934       936       938       935       934       936       986
       936       986       989       990       936       986       989       991
       936       986       989       992       937       936       986       987
       937       936       986       988       937       936       986       989
       938       936       986       987       938       936       986       988
       938       936       986       989       939       942       945       946
       939       942       945       947       939       942       945       948
       940       939       942       943       940       939       942       944
       940       939       942       945       941       939       942       943
       941       939       942       944       941       939       942       945
       942       945       948       949       942       945       948       950
       942       945       948       951       943       942       945       946
       943       942       945       947       943       942       945       948
       944       942       945       946       944       942       945       947
       944       942       945       948       945       948       951       952
       945       948       951       953       945       948       951       954
       946       945       948       949       946       945       948       950
       946       945       948       951       947       945       948       949
       947       945       948       950       947       945       948       951
       948       951       954       955       948       951       954       956
       948       951       954       957       949       948       951       952
       949       948       951       953       949       948       951       954
       950       948       951       952       950       948       951       953
       950       948       951       954       951       954       957       958
       951       954       957       959       952       951       954       955
       952       951       954       956       952       951       954       957
       953       951       954       955       953       951       954       956
       953       951       954       957       954       957       959       960
       954       957       959       961       955       954       957       958
       955       954       957       959       956       954       957       958
       956       954       957       959       957       959       961       962
       957       959       961       963       957       959       961       964
       958       957       959       960       958       957       959       961
       959       961       964       965       959       961       964       966
       959       961       964       967       960       959       961       962
       960       959       961       963       960       959       961       964
       961       964       967       968       961       964       967       969
       961       964       967       970       962       961       964       965
       962       961       964       966       962       961       964       967
       963       961       964       965       963       961       964       966
       963       961       964       967       964       967       970       971
       964       967       970       972       964       967       970       973
       965       964       967       968       965       964       967       969
       965       964       967       970       966       964       967       968
       966       964       967       969       966       964       967       970
       967       970       973       974       967       970       973       975
       967       970       973       976       968       967       970       971
       968       967       970       972       968       967       970       973
       969       967       970       971       969       967       970       972
       969       967       970       973       970       973       976       977
       970       973       976       978       970       973       976       979
       971       970       973       974       971       970       973       975
       971       970       973       976       972       970       973       974
       972       970       973       975       972       970       973       976
       973       976       979       980       973       976       979       981
       973       976       979       982       974       973       976       977
       974       973       976       978       974       973       976       979
       975       973       976       977       975       973       976       978
       975       973       976       979       976       979       982       983
       976       979       982       984       976       979       982       985
       977       976       979       980       977       976       979       981
       977       976       979       982       978       976       979       980
       978       976       979       981       978       976       979       982
       980       979       982       983       980       979       982       984
       980       979       982       985       981       979       982       983
       981       979       982       984       981       979       982       985
       986       989       992       993       986       989       992       994
       986       989       992       995       987       986       989       990
       987       986       989       991       987       986       989       992
       988       986       989       990       988       986       989       991
       988       986       989       992       989       992       995       996
       989       992       995       997       989       992       995       998
       990       989       992       993       990       989       992       994
       990       989       992       995       991       989       992       993
       991       989       992       994       991       989       992       995
       992       995       998       999       992       995       998      1000
       992       995       998      1001       993       992       995       996
       993       992       995       997       993       992       995       998
       994       992       995       996       994       992       995       997
       994       992       995       998       995       998      1001      1002
       995       998      1001      1003       995       998      1001      1004
       996       995       998       999       996       995       998      1000
       996       995       998      1001       997       995       998       999
       997       995       998      1000       997       995       998      1001
       998      1001      1004      1005       998      1001      1004      1006
       998      1001      1004      1007       999       998      1001      1002
       999       998      1001      1003       999       998      1001      1004
      1000       998      1001      1002      1000       998      1001      1003
      1000       998      1001      1004      1001      1004      1007      1008
      1001      1004      1007      1009      1001      1004      1007      1010
      1002      1001      1004      1005      1002      1001      1004      1006
      1002      1001      1004      1007      1003      1001      1004      1005
      1003      1001      1004      1006      1003      1001      1004      1007
      1004      1007      1010      1011      1004      1007      1010      1012
      1004      1007      1010      1013      1005      1004      1007      1008
      1005      1004      1007      1009      1005      1004      1007      1010
      1006      1004      1007      1008      1006      1004      1007      1009
      1006      1004      1007      1010      1007      1010      1013      1014
      1007      1010      1013      1015      1007      1010      1013      1016
      1008      1007      1010      1011      1008      1007      1010      1012
      1008      1007      1010      1013      1009      1007      1010      1011
      1009      1007      1010      1012      1009      1007      1010      1013
      1010      1013      1016      1017      1010      1013      1016      1018
      1010      1013      1016      1019      1011      1010      1013      1014
      1011      1010      1013      1015      1011      1010      1013      1016
      1012      1010      1013      1014      1012      1010      1013      1015
      1012      1010      1013      1016      1013      1016      1019      1020
      1013      1016      1019      1021      1013      1016      1019      1022
      1014      1013      1016      1017      1014      1013      1016      1018
      1014      1013      1016      1019      1015      1013      1016      1017
      1015      1013      1016      1018      1015      1013      1016      1019
      1016      1019      1022      1023      1016      1019      1022      1024
      1016      1019      1022      1025      1017      1016      1019      1020
      1017      1016      1019      1021      1017      1016      1019      1022
      1018      1016      1019      1020      1018      1016      1019      1021
      1018      1016      1019      1022      1019      1022      1025      1026
      1019      1022      1025      1027      1019      1022      1025      1028
      1020      1019      1022      1023      1020      1019      1022      1024
      1020      1019      1022      1025      1021      1019      1022      1023
      1021      1019      1022      1024      1021      1019      1022      1025
      1023      1022      1025      1026      1023      1022      1025      1027
      1023      1022      1025      1028      1024      1022      1025      1026
      1024      1022      1025      1027      1024      1022      1025      1028
      1029      1030      1045      1046      1029      1030      1045      1047
      1029      1030      1045      1051      1030      1029      1033      1034
      1030      1029      1033      1035      1030      1029      1033      1036
      1030      1029      1037      1038      1030      1029      1037      1039
      1030      1029      1037      1040      1030      1029      1041      1042
      1030      1029      1041      1043      1030      1029      1041      1044
      1030      1045      1051      1048      1031      1030      1029      1033
      1031      1030      1029      1037      1031      1030      1029      1041
      1031      1030      1045      1046      1031      1030      1045      1047
      1031      1030      1045      1051      1032      1030      1029      1033
      1032      1030      1029      1037      1032      1030      1029      1041
      1032      1030      1045      1046      1032      1030      1045      1047
      1032      1030      1045      1051      1033      1029      1030      1045
      1033      1029      1037      1038      1033      1029      1037      1039
      1033      1029      1037      1040      1033      1029      1041      1042
      1033      1029      1041      1043      1033      1029      1041      1044
      1034      1033      1029      1037      1034      1033      1029      1041
      1035      1033      1029      1037      1035      1033      1029      1041
      1036      1033      1029      1037      1036      1033      1029      1041
      1037      1029      1030      1045      1037      1029      1041      1042
      1037      1029      1041      1043      1037      1029      1041      1044
      1038      1037      1029      1041      1039      1037      1029      1041
      1040      1037      1029      1041      1041      1029      1030      1045
      1045      1051      1048      1049      1045      1051      1048      1050
      1045      1051      1048      1052      1046      1045      1051      1048
      1047      1045      1051      1048      1048      1052      1053      1054
      1048      1052      1053      1055      1048      1052      1053      1056
      1049      1048      1052      1053      1050      1048      1052      1053
      1051      1048      1052      1053      1052      1053      1056      1057
      1052      1053      1056      1058      1052      1053      1056      1064
      1053      1056      1058      1059      1053      1056      1064      1065
      1053      1056      1064      1066      1053      1056      1064      1067
      1054      1053      1056      1057      1054      1053      1056      1058
      1054      1053      1056      1064      1055      1053      1056      1057
      1055      1053      1056      1058      1055      1053      1056      1064
      1056      1058      1059      1060      1056      1058      1059      1061
      1056      1064      1067      1068      1057      1056      1058      1059
      1057      1056      1064      1065      1057      1056      1064      1066
      1057      1056      1064      1067      1058      1056      1064      1065
      1058      1056      1064      1066      1058      1056      1064      1067
      1058      1059      1061      1062      1058      1059      1061      1063
      1058      1059      1061      1073      1059      1058      1056      1064
      1059      1061      1073      1074      1059      1061      1073      1075
      1059      1061      1073      1076      1060      1059      1061      1062
      1060      1059      1061      1063      1060      1059      1061      1073
      1061      1073      1076      1077      1061      1073      1076      1078
      1061      1073      1076      1079      1062      1061      1073      1074
      1062      1061      1073      1075      1062      1061      1073      1076
      1063      1061      1073      1074      1063      1061      1073      1075
      1063      1061      1073      1076      1064      1067      1068      1069
      1064      1067      1068      1070      1065      1064      1067      1068
      1066      1064      1067      1068      1067      1068      1070      1071
      1067      1068      1070      1072      1067      1068      1070      1120
      1068      1070      1120      1121      1068      1070      1120      1122
      1068      1070      1120      1123      1069      1068      1070      1071
      1069      1068      1070      1072      1069      1068      1070      1120
      1070      1120      1123      1124      1070      1120      1123      1125
      1070      1120      1123      1126      1071      1070      1120      1121
      1071      1070      1120      1122      1071      1070      1120      1123
      1072      1070      1120      1121      1072      1070      1120      1122
      1072      1070      1120      1123      1073      1076      1079      1080
      1073      1076      1079      1081      1073      1076      1079      1082
      1074      1073      1076      1077      1074      1073      1076      1078
      1074      1073      1076      1079      1075      1073      1076      1077
      1075      1073      1076      1078      1075      1073      1076      1079
      1076      1079      1082      1083      1076      1079      1082      1084
      1076      1079      1082      1085      1077      1076      1079      1080
      1077      1076      1079      1081      1077      1076      1079      1082
      1078      1076      1079      1080      1078      1076      1079      1081
      1078      1076      1079      1082      1079      1082      1085      1086
      1079      1082      1085      1087      1079      1082      1085      1088
      1080      1079      1082      1083      1080      1079      1082      1084
      1080      1079      1082      1085      1081      1079      1082      1083
      1081      1079      1082      1084      1081      1079      1082      1085
      1082      1085      1088      1089      1082      1085      1088      1090
      1082      1085      1088      1091      1083      1082      1085      1086
      1083      1082      1085      1087      1083      1082      1085      1088
      1084      1082      1085      1086      1084      1082      1085      1087
      1084      1082      1085      1088      1085      1088      1091      1092
      1085      1088      1091      1093      1086      1085      1088      1089
      1086      1085      1088      1090      1086      1085      1088      1091
      1087      1085      1088      1089      1087      1085      1088      1090
      1087      1085      1088      1091      1088      1091      1093      1094
      1088      1091      1093      1095      1089      1088      1091      1092
      1089      1088      1091      1093      1090      1088      1091      1092
      1090      1088      1091      1093      1091      1093      1095      1096
      1091      1093      1095      1097      1091      1093      1095      1098
      1092      1091      1093      1094      1092      1091      1093      1095
      1093      1095      1098      1099      1093      1095      1098      1100
      1093      1095      1098      1101      1094      1093      1095      1096
      1094      1093      1095      1097      1094      1093      1095      1098
      1095      1098      1101      1102      1095      1098      1101      1103
      1095      1098      1101      1104      1096      1095      1098      1099
      1096      1095      1098      1100      1096      1095      1098      1101
      1097      1095      1098      1099      1097      1095      1098      1100
      1097      1095      1098      1101      1098      1101      1104      1105
      1098      1101      1104      1106      1098      1101      1104      1107
      1099      1098      1101      1102      1099      1098      1101      1103
      1099      1098      1101      1104      1100      1098      1101      1102
      1100      1098      1101      1103      1100      1098      1101      1104
      1101      1104      1107      1108      1101      1104      1107      1109
      1101      1104      1107      1110      1102      1101      1104      1105
      1102      1101      1104      1106      1102      1101      1104      1107
      1103      1101      1104      1105      1103      1101      1104      1106
      1103      1101      1104      1107      1104      1107      1110      1111
      1104      1107      1110      1112      1104      1107      1110      1113
      1105      1104      1107      1108      1105      1104      1107      1109
      1105      1104      1107      1110      1106      1104      1107      1108
      1106      1104      1107      1109      1106      1104      1107      1110
      1107      1110      1113      1114      1107      1110      1113      1115
      1107      1110      1113      1116      1108      1107      1110      1111
      1108      1107      1110      1112      1108      1107      1110      1113
      1109      1107      1110      1111      1109      1107      1110      1112
      1109      1107      1110      1113      1110      1113      1116      1117
      1110      1113      1116      1118      1110      1113      1116      1119
      1111      1110      1113      1114      1111      1110      1113      1115
      1111      1110      1113      1116      1112      1110      1113      1114
      1112      1110      1113      1115      1112      1110      1113      1116
      1114      1113      1116      1117      1114      1113      1116      1118
      1114      1113      1116      1119      1115      1113      1116      1117
      1115      1113      1116      1118      1115      1113      1116      1119
      1120      1123      1126      1127      1120      1123      1126      1128
      1120      1123      1126      1129      1121      1120      1123      1124
      1121      1120      1123      1125      1121      1120      1123      1126
      1122      1120      1123      1124      1122      1120      1123      1125
      1122      1120      1123      1126      1123      1126      1129      1130
      1123      1126      1129      1131      1123      1126      1129      1132
      1124      1123      1126      1127      1124      1123      1126      1128
      1124      1123      1126      1129      1125      1123      1126      1127
      1125      1123      1126      1128      1125      1123      1126      1129
      1126      1129      1132      1133      1126      1129      1132      1134
      1126      1129      1132      1135      1127      1126      1129      1130
      1127      1126      1129      1131      1127      1126      1129      1132
      1128      1126      1129      1130      1128      1126      1129      1131
      1128      1126      1129      1132      1129      1132      1135      1136
      1129      1132      1135      1137      1129      1132      1135      1138
      1130      1129      1132      1133      1130      1129      1132      1134
      1130      1129      1132      1135      1131      1129      1132      1133
      1131      1129      1132      1134      1131      1129      1132      1135
      1132      1135      1138      1139      1132      1135      1138      1140
      1132      1135      1138      1141      1133      1132      1135      1136
      1133      1132      1135      1137      1133      1132      1135      1138
      1134      1132      1135      1136      1134      1132      1135      1137
      1134      1132      1135      1138      1135      1138      1141      1142
      1135      1138      1141      1143      1135      1138      1141      1144
      1136      1135      1138      1139      1136      1135      1138      1140
      1136      1135      1138      1141      1137      1135      1138      1139
      1137      1135      1138      1140      1137      1135      1138      1141
      1138      1141      1144      1145      1138      1141      1144      1146
      1138      1141      1144      1147      1139      1138      1141      1142
      1139      1138      1141      1143      1139      1138      1141      1144
      1140      1138      1141      1142      1140      1138      1141      1143
      1140      1138      1141      1144      1141      1144      1147      1148
      1141      1144      1147      1149      1141      1144      1147      1150
      1142      1141      1144      1145      1142      1141      1144      1146
      1142      1141      1144      1147      1143      1141      1144      1145
      1143      1141      1144      1146      1143      1141      1144      1147
      1144      1147      1150      1151      1144      1147      1150      1152
      1144      1147      1150      1153      1145      1144      1147      1148
      1145      1144      1147      1149      1145      1144      1147      1150
      1146      1144      1147      1148      1146      1144      1147      1149
      1146      1144      1147      1150      1147      1150      1153      1154
      1147      1150      1153      1155      1147      1150      1153      1156
      1148      1147      1150      1151      1148      1147      1150      1152
      1148      1147      1150      1153      1149      1147      1150      1151
      1149      1147      1150      1152      1149      1147      1150      1153
      1150      1153      1156      1157      1150      1153      1156      1158
      1150      1153      1156      1159      1151      1150      1153      1154
      1151      1150      1153      1155      1151      1150      1153      1156
      1152      1150      1153      1154      1152      1150      1153      1155
      1152      1150      1153      1156      1153      1156      1159      1160
      1153      1156      1159      1161      1153      1156      1159      1162
      1154      1153      1156      1157      1154      1153      1156      1158
      1154      1153      1156      1159      1155      1153      1156      1157
      1155      1153      1156      1158      1155      1153      1156      1159
      1157      1156      1159      1160      1157      1156      1159      1161
      1157      1156      1159      1162      1158      1156      1159      1160
      1158      1156      1159      1161      1158      1156      1159      1162
      1163      1164      1179      1180      1163      1164      1179      1181
      1163      1164      1179      1185      1164      1163      1167      1168
      1164      1163      1167      1169      1164      1163      1167      1170
      1164      1163      1171      1172      1164      1163      1171      1173
      1164      1163      1171      1174      1164      1163      1175      1176
      1164      1163      1175      1177      1164      1163      1175      1178
      1164      1179      1185      1182      1165      1164      1163      1167
      1165      1164      1163      1171      1165      1164      1163      1175
      1165      1164      1179      1180      1165      1164      1179      1181
      1165      1164      1179      1185      1166      1164      1163      1167
      1166      1164      1163      1171      1166      1164      1163      1175
      1166      1164      1179      1180      1166      1164      1179      1181
      1166      1164      1179      1185      1167      1163      1164      1179
      1167      1163      1171      1172      1167      1163      1171      1173
      1167      1163      1171      1174      1167      1163      1175      1176
      1167      1163      1175      1177      1167      1163      1175      1178
      1168      1167      1163      1171      1168      1167      1163      1175
      1169      1167      1163      1171      1169      1167      1163      1175
      1170      1167      1163      1171      1170      1167      1163      1175
      1171      1163      1164      1179      1171      1163      1175      1176
      1171      1163      1175      1177      1171      1163      1175      1178
      1172      1171      1163      1175      1173      1171      1163      1175
      1174      1171      1163      1175      1175      1163      1164      1179
      1179      1185      1182      1183      1179      1185      1182      1184
      1179      1185      1182      1186      1180      1179      1185      1182
      1181      1179      1185      1182      1182      1186      1187      1188
      1182      1186      1187      1189      1182      1186      1187      1190
      1183      1182      1186      1187      1184      1182      1186      1187
      1185      1182      1186      1187      1186      1187      1190      1191
      1186      1187      1190      1192      1186      1187      1190      1198
      1187      1190      1192      1193      1187      1190      1198      1199
      1187      1190      1198      1200      1187      1190      1198      1201
      1188      1187      1190      1191      1188      1187      1190      1192
      1188      1187      1190      1198      1189      1187      1190      1191
      1189      1187      1190      1192      1189      1187      1190      1198
      1190      1192      1193      1194      1190      1192      1193      1195
      1190      1198      1201      1202      1191      1190      1192      1193
      1191      1190      1198      1199      1191      1190      1198      1200
      1191      1190      1198      1201      1192      1190      1198      1199
      1192      1190      1198      1200      1192      1190      1198      1201
      1192      1193      1195      1196      1192      1193      1195      1197
      1192      1193      1195      1207      1193      1192      1190      1198
      1193      1195      1207      1208      1193      1195      1207      1209
      1193      1195      1207      1210      1194      1193      1195      1196
      1194      1193      1195      1197      1194      1193      1195      1207
      1195      1207      1210      1211      1195      1207      1210      1212
      1195      1207      1210      1213      1196      1195      1207      1208
      1196      1195      1207      1209      1196      1195      1207      1210
      1197      1195      1207      1208      1197      1195      1207      1209
      1197      1195      1207      1210      1198      1201      1202      1203
      1198      1201      1202      1204      1199      1198      1201      1202
      1200      1198      1201      1202      1201      1202      1204      1205
      1201      1202      1204      1206      1201      1202      1204      1254
      1202      1204      1254      1255      1202      1204      1254      1256
      1202      1204      1254      1257      1203      1202      1204      1205
      1203      1202      1204      1206      1203      1202      1204      1254
      1204      1254      1257      1258      1204      1254      1257      1259
      1204      1254      1257      1260      1205      1204      1254      1255
      1205      1204      1254      1256      1205      1204      1254      1257
      1206      1204      1254      1255      1206      1204      1254      1256
      1206      1204      1254      1257      1207      1210      1213      1214
      1207      1210      1213      1215      1207      1210      1213      1216
      1208      1207      1210      1211      1208      1207      1210      1212
      1208      1207      1210      1213      1209      1207      1210      1211
      1209      1207      1210      1212      1209      1207      1210      1213
      1210      1213      1216      1217      1210      1213      1216      1218
      1210      1213      1216      1219      1211      1210      1213      1214
      1211      1210      1213      1215      1211      1210      1213      1216
      1212      1210      1213      1214      1212      1210      1213      1215
      1212      1210      1213      1216      1213      1216      1219      1220
      1213      1216      1219      1221      1213      1216      1219      1222
      1214      1213      1216      1217      1214      1213      1216      1218
      1214      1213      1216      1219      1215      1213      1216      1217
      1215      1213      1216      1218      1215      1213      1216      1219
      1216      1219      1222      1223      1216      1219      1222      1224
      1216      1219      1222      1225      1217      1216      1219      1220
      1217      1216      1219      1221      1217      1216      1219      1222
      1218      1216      1219      1220      1218      1216      1219      1221
      1218      1216      1219      1222      1219      1222      1225      1226
      1219      1222      1225      1227      1220      1219      1222      1223
      1220      1219      1222      1224      1220      1219      1222      1225
      1221      1219      1222      1223      1221      1219      1222      1224
      1221      1219      1222      1225      1222      1225      1227      1228
      1222      1225      1227      1229      1223      1222      1225      1226
      1223      1222      1225      1227      1224      1222      1225      1226
      1224      1222      1225      1227      1225      1227      1229      1230
      1225      1227      1229      1231      1225      1227      1229      1232
      1226      1225      1227      1228      1226      1225      1227      1229
      1227      1229      1232      1233      1227      1229      1232      1234
      1227      1229      1232      1235      1228      1227      1229      1230
      1228      1227      1229      1231      1228      1227      1229      1232
      1229      1232      1235      1236      1229      1232      1235      1237
      1229      1232      1235      1238      1230      1229      1232      1233
      1230      1229      1232      1234      1230      1229      1232      1235
      1231      1229      1232      1233      1231      1229      1232      1234
      1231      1229      1232      1235      1232      1235      1238      1239
      1232      1235      1238      1240      1232      1235      1238      1241
      1233      1232      1235      1236      1233      1232      1235      1237
      1233      1232      1235      1238      1234      1232      1235      1236
      1234      1232      1235      1237      1234      1232      1235      1238
      1235      1238      1241      1242      1235      1238      1241      1243
      1235      1238      1241      1244      1236      1235      1238      1239
      1236      1235      1238      1240      1236      1235      1238      1241
      1237      1235      1238      1239      1237      1235      1238      1240
      1237      1235      1238      1241      1238      1241      1244      1245
      1238      1241      1244      1246      1238      1241      1244      1247
      1239      1238      1241      1242      1239      1238      1241      1243
      1239      1238      1241      1244      1240      1238      1241      1242
      1240      1238      1241      1243      1240      1238      1241      1244
      1241      1244      1247      1248      1241      1244      1247      1249
      1241      1244      1247      1250      1242      1241      1244      1245
      1242      1241      1244      1246      1242      1241      1244      1247
      1243      1241      1244      1245      1243      1241      1244      1246
      1243      1241      1244      1247      1244      1247      1250      1251
      1244      1247      1250      1252      1244      1247      1250      1253
      1245      1244      1247      1248      1245      1244      1247      1249
      1245      1244      1247      1250      1246      1244      1247      1248
      1246      1244      1247      1249      1246      1244      1247      1250
      1248      1247      1250      1251      1248      1247      1250      1252
      1248      1247      1250      1253      1249      1247      1250      1251
      1249      1247      1250      1252      1249      1247      1250      1253
      1254      1257      1260      1261      1254      1257      1260      1262
      1254      1257      1260      1263      1255      1254      1257      1258
      1255      1254      1257      1259      1255      1254      1257      1260
      1256      1254      1257      1258      1256      1254      1257      1259
      1256      1254      1257      1260      1257      1260      1263      1264
      1257      1260      1263      1265      1257      1260      1263      1266
      1258      1257      1260      1261      1258      1257      1260      1262
      1258      1257      1260      1263      1259      1257      1260      1261
      1259      1257      1260      1262      1259      1257      1260      1263
      1260      1263      1266      1267      1260      1263      1266      1268
      1260      1263      1266      1269      1261      1260      1263      1264
      1261      1260      1263      1265      1261      1260      1263      1266
      1262      1260      1263      1264      1262      1260      1263      1265
      1262      1260      1263      1266      1263      1266      1269      1270
      1263      1266      1269      1271      1263      1266      1269      1272
      1264      1263      1266      1267      1264      1263      1266      1268
      1264      1263      1266      1269      1265      1263      1266      1267
      1265      1263      1266      1268      1265      1263      1266      1269
      1266      1269      1272      1273      1266      1269      1272      1274
      1266      1269      1272      1275      1267      1266      1269      1270
      1267      1266      1269      1271      1267      1266      1269      1272
      1268      1266      1269      1270      1268      1266      1269      1271
      1268      1266      1269      1272      1269      1272      1275      1276
      1269      1272      1275      1277      1269      1272      1275      1278
      1270      1269      1272      1273      1270      1269      1272      1274
      1270      1269      1272      1275      1271      1269      1272      1273
      1271      1269      1272      1274      1271      1269      1272      1275
      1272      1275      1278      1279      1272      1275      1278      1280
      1272      1275      1278      1281      1273      1272      1275      1276
      1273      1272      1275      1277      1273      1272      1275      1278
      1274      1272      1275      1276      1274      1272      1275      1277
      1274      1272      1275      1278      1275      1278      1281      1282
      1275      1278      1281      1283      1275      1278      1281      1284
      1276      1275      1278      1279      1276      1275      1278      1280
      1276      1275      1278      1281      1277      1275      1278      1279
      1277      1275      1278      1280      1277      1275      1278      1281
      1278      1281      1284      1285      1278      1281      1284      1286
      1278      1281      1284      1287      1279      1278      1281      1282
      1279      1278      1281      1283      1279      1278      1281      1284
      1280      1278      1281      1282      1280      1278      1281      1283
      1280      1278      1281      1284      1281      1284      1287      1288
      1281      1284      1287      1289      1281      1284      1287      1290
      1282      1281      1284      1285      1282      1281      1284      1286
      1282      1281      1284      1287      1283      1281      1284      1285
      1283      1281      1284      1286      1283      1281      1284      1287
      1284      1287      1290      1291      1284      1287      1290      1292
      1284      1287      1290      1293      1285      1284      1287      1288
      1285      1284      1287      1289      1285      1284      1287      1290
      1286      1284      1287      1288      1286      1284      1287      1289
      1286      1284      1287      1290      1287      1290      1293      1294
      1287      1290      1293      1295      1287      1290      1293      1296
      1288      1287      1290      1291      1288      1287      1290      1292
      1288      1287      1290      1293      1289      1287      1290      1291
      1289      1287      1290      1292      1289      1287      1290      1293
      1291      1290      1293      1294      1291      1290      1293      1295
      1291      1290      1293      1296      1292      1290      1293      1294
      1292      1290      1293      1295      1292      1290      1293      1296
      1297      1301      1303      1304      1297      1301      1303      1305
      1297      1301      1306      1307      1297      1301      1306      1308
      1297      1301      1306      1312      1298      1297      1301      1302
      1298      1297      1301      1303      1298      1297      1301      1306
      1299      1297      1301      1302      1299      1297      1301      1303
      1299      1297      1301      1306      1300      1297      1301      1302
      1300      1297      1301      1303      1300      1297      1301      1306
      1301      1306      1312      1309      1302      1301      1303      1304
      1302      1301      1303      1305      1302      1301      1306      1307
      1302      1301      1306      1308      1302      1301      1306      1312
      1303      1301      1306      1307      1303      1301      1306      1308
      1303      1301      1306      1312      1304      1303      1301      1306
      1305      1303      1301      1306      1306      1312      1309      1310
      1306      1312      1309      1311      1306      1312      1309      1313
      1307      1306      1312      1309      1308      1306      1312      1309
      1309      1313      1314      1315      1309      1313      1314      1316
      1309      1313      1314      1317      1310      1309      1313      1314
      1311      1309      1313      1314      1312      1309      1313      1314
      1313      1314      1317      1318      1313      1314      1317      1319
      1313      1314      1317      1325      1314      1317      1319      1320
      1314      1317      1325      1326      1314      1317      1325      1327
      1314      1317      1325      1328      1315      1314      1317      1318
      1315      1314      1317      1319      1315      1314      1317      1325
      1316      1314      1317      1318      1316      1314      1317      1319
      1316      1314      1317      1325      1317      1319      1320      1321
      1317      1319      1320      1322      1317      1325      1328      1329
      1318      1317      1319      1320      1318      1317      1325      1326
      1318      1317      1325      1327      1318      1317      1325      1328
      1319      1317      1325      1326      1319      1317      1325      1327
      1319      1317      1325      1328      1319      1320      1322      1323
      1319      1320      1322      1324      1319      1320      1322      1334
      1320      1319      1317      1325      1320      1322      1334      1335
      1320      1322      1334      1336      1320      1322      1334      1337
      1321      1320      1322      1323      1321      1320      1322      1324
      1321      1320      1322      1334      1322      1334      1337      1338
      1322      1334      1337      1339      1322      1334      1337      1340
      1323      1322      1334      1335      1323      1322      1334      1336
      1323      1322      1334      1337      1324      1322      1334      1335
      1324      1322      1334      1336      1324      1322      1334      1337
      1325      1328      1329      1330      1325      1328      1329      1331
      1326      1325      1328      1329      1327      1325      1328      1329
      1328      1329      1331      1332      1328      1329      1331      1333
      1328      1329      1331      1381      1329      1331      1381      1382
      1329      1331      1381      1383      1329      1331      1381      1384
      1330      1329      1331      1332      1330      1329      1331      1333
      1330      1329      1331      1381      1331      1381      1384      1385
      1331      1381      1384      1386      1331      1381      1384      1387
      1332      1331      1381      1382      1332      1331      1381      1383
      1332      1331      1381      1384      1333      1331      1381      1382
      1333      1331      1381      1383      1333      1331      1381      1384
      1334      1337      1340      1341      1334      1337      1340      1342
      1334      1337      1340      1343      1335      1334      1337      1338
      1335      1334      1337      1339      1335      1334      1337      1340
      1336      1334      1337      1338      1336      1334      1337      1339
      1336      1334      1337      1340      1337      1340      1343      1344
      1337      1340      1343      1345      1337      1340      1343      1346
      1338      1337      1340      1341      1338      1337      1340      1342
      1338      1337      1340      1343      1339      1337      1340      1341
      1339      1337      1340      1342      1339      1337      1340      1343
      1340      1343      1346      1347      1340      1343      1346      1348
      1340      1343      1346      1349      1341      1340      1343      1344
      1341      1340      1343      1345      1341      1340      1343      1346
      1342      1340      1343      1344      1342      1340      1343      1345
      1342      1340      1343      1346      1343      1346      1349      1350
      1343      1346      1349      1351      1343      1346      1349      1352
      1344      1343      1346      1347      1344      1343      1346      1348
      1344      1343      1346      1349      1345      1343      1346      1347
      1345      1343      1346      1348      1345      1343      1346      1349
      1346      1349      1352      1353      1346      1349      1352      1354
      1347      1346      1349      1350      1347      1346      1349      1351
      1347      1346      1349      1352      1348      1346      1349      1350
      1348      1346      1349      1351      1348      1346      1349      1352
      1349      1352      1354      1355      1349      1352      1354      1356
      1350      1349      1352      1353      1350      1349      1352      1354
      1351      1349      1352      1353      1351      1349      1352      1354
      1352      1354      1356      1357      1352      1354      1356      1358
      1352      1354      1356      1359      1353      1352      1354      1355
      1353      1352      1354      1356      1354      1356      1359      1360
      1354      1356      1359      1361      1354      1356      1359      1362
      1355      1354      1356      1357      1355      1354      1356      1358
      1355      1354      1356      1359      1356      1359      1362      1363
      1356      1359      1362      1364      1356      1359      1362      1365
      1357      1356      1359      1360      1357      1356      1359      1361
      1357      1356      1359      1362      1358      1356      1359      1360
      1358      1356      1359      1361      1358      1356      1359      1362
      1359      1362      1365      1366      1359      1362      1365      1367
      1359      1362      1365      1368      1360      1359      1362      1363
      1360      1359      1362      1364      1360      1359      1362      1365
      1361      1359      1362      1363      1361      1359      1362      1364
      1361      1359      1362      1365      1362      1365      1368      1369
      1362      1365      1368      1370      1362      1365      1368      1371
      1363      1362      1365      1366      1363      1362      1365      1367
      1363      1362      1365      1368      1364      1362      1365      1366
      1364      1362      1365      1367      1364      1362      1365      1368
      1365      1368      1371      1372      1365      1368      1371      1373
      1365      1368      1371      1374      1366      1365      1368      1369
      1366      1365      1368      1370      1366      1365      1368      1371
      1367      1365      1368      1369      1367      1365      1368      1370
      1367      1365      1368      1371      1368      1371      1374      1375
      1368      1371      1374      1376      1368      1371      1374      1377
      1369      1368      1371      1372      1369      1368      1371      1373
      1369      1368      1371      1374      1370      1368      1371      1372
      1370      1368      1371      1373      1370      1368      1371      1374
      1371      1374      1377      1378      1371      1374      1377      1379
      1371      1374      1377      1380      1372      1371      1374      1375
      1372      1371      1374      1376      1372      1371      1374      1377
      1373      1371      1374      1375      1373      1371      1374      1376
      1373      1371      1374      1377      1375      1374      1377      1378
      1375      1374      1377      1379      1375      1374      1377      1380
      1376      1374      1377      1378      1376      1374      1377      1379
      1376      1374      1377      1380      1381      1384      1387      1388
      1381      1384      1387      1389      1381      1384      1387      1390
      1382      1381      1384      1385      1382      1381      1384      1386
      1382      1381      1384      1387      1383      1381      1384      1385
      1383      1381      1384      1386      1383      1381      1384      1387
      1384      1387      1390      1391      1384      1387      1390      1392
      1384      1387      1390      1393      1385      1384      1387      1388
      1385      1384      1387      1389      1385      1384      1387      1390
      1386      1384      1387      1388      1386      1384      1387      1389
      1386      1384      1387      1390      1387      1390      1393      1394
      1387      1390      1393      1395      1387      1390      1393      1396
      1388      1387      1390      1391      1388      1387      1390      1392
      1388      1387      1390      1393      1389      1387      1390      1391
      1389      1387      1390      1392      1389      1387      1390      1393
      1390      1393      1396      1397      1390      1393      1396      1398
      1390      1393      1396      1399      1391      1390      1393      1394
      1391      1390      1393      1395      1391      1390      1393      1396
      1392      1390      1393      1394      1392      1390      1393      1395
      1392      1390      1393      1396      1393      1396      1399      1400
      1393      1396      1399      1401      1393      1396      1399      1402
      1394      1393      1396      1397      1394      1393      1396      1398
      1394      1393      1396      1399      1395      1393      1396      1397
      1395      1393      1396      1398      1395      1393      1396      1399
      1396      1399      1402      1403      1396      1399      1402      1404
      1396      1399      1402      1405      1397      1396      1399      1400
      1397      1396      1399      1401      1397      1396      1399      1402
      1398      1396      1399      1400      1398      1396      1399      1401
      1398      1396      1399      1402      1399      1402      1405      1406
      1399      1402      1405      1407      1399      1402      1405      1408
      1400      1399      1402      1403      1400      1399      1402      1404
      1400      1399      1402      1405      1401      1399      1402      1403
      1401      1399      1402      1404      1401      1399      1402      1405
      1402      1405      1408      1409      1402      1405      1408      1410
      1402      1405      1408      1411      1403      1402      1405      1406
      1403      1402      1405      1407      1403      1402      1405      1408
      1404      1402      1405      1406      1404      1402      1405      1407
      1404      1402      1405      1408      1405      1408      1411      1412
      1405      1408      1411      1413      1405      1408      1411      1414
      1406      1405      1408      1409      1406      1405      1408      1410
      1406      1405      1408      1411      1407      1405      1408      1409
      1407      1405      1408      1410      1407      1405      1408      1411
      1408      1411      1414      1415      1408      1411      1414      1416
      1408      1411      1414      1417      1409      1408      1411      1412
      1409      1408      1411      1413      1409      1408      1411      1414
      1410      1408      1411      1412      1410      1408      1411      1413
      1410      1408      1411      1414      1411      1414      1417      1418
      1411      1414      1417      1419      1411      1414      1417      1420
      1412      1411      1414      1415      1412      1411      1414      1416
      1412      1411      1414      1417      1413      1411      1414      1415
      1413      1411      1414      1416      1413      1411      1414      1417
      1414      1417      1420      1421      1414      1417      1420      1422
      1414      1417      1420      1423      1415      1414      1417      1418
      1415      1414      1417      1419      1415      1414      1417      1420
      1416      1414      1417      1418      1416      1414      1417      1419
      1416      1414      1417      1420      1418      1417      1420      1421
      1418      1417      1420      1422      1418      1417      1420      1423
      1419      1417      1420      1421      1419      1417      1420      1422
      1419      1417      1420      1423      1424      1428      1430      1431
      1424      1428      1430      1432      1424      1428      1433      1434
      1424      1428      1433      1435      1424      1428      1433      1439
      1425      1424      1428      1429      1425      1424      1428      1430
      1425      1424      1428      1433      1426      1424      1428      1429
      1426      1424      1428      1430      1426      1424      1428      1433
      1427      1424      1428      1429      1427      1424      1428      1430
      1427      1424      1428      1433      1428      1433      1439      1436
      1429      1428      1430      1431      1429      1428      1430      1432
      1429      1428      1433      1434      1429      1428      1433      1435
      1429      1428      1433      1439      1430      1428      1433      1434
      1430      1428      1433      1435      1430      1428      1433      1439
      1431      1430      1428      1433      1432      1430      1428      1433
      1433      1439      1436      1437      1433      1439      1436      1438
      1433      1439      1436      1440      1434      1433      1439      1436
      1435      1433      1439      1436      1436      1440      1441      1442
      1436      1440      1441      1443      1436      1440      1441      1444
      1437      1436      1440      1441      1438      1436      1440      1441
      1439      1436      1440      1441      1440      1441      1444      1445
      1440      1441      1444      1446      1440      1441      1444      1452
      1441      1444      1446      1447      1441      1444      1452      1453
      1441      1444      1452      1454      1441      1444      1452      1455
      1442      1441      1444      1445      1442      1441      1444      1446
      1442      1441      1444      1452      1443      1441      1444      1445
      1443      1441      1444      1446      1443      1441      1444      1452
      1444      1446      1447      1448      1444      1446      1447      1449
      1444      1452      1455      1456      1445      1444      1446      1447
      1445      1444      1452      1453      1445      1444      1452      1454
      1445      1444      1452      1455      1446      1444      1452      1453
      1446      1444      1452      1454      1446      1444      1452      1455
      1446      1447      1449      1450      1446      1447      1449      1451
      1446      1447      1449      1461      1447      1446      1444      1452
      1447      1449      1461      1462      1447      1449      1461      1463
      1447      1449      1461      1464      1448      1447      1449      1450
      1448      1447      1449      1451      1448      1447      1449      1461
      1449      1461      1464      1465      1449      1461      1464      1466
      1449      1461      1464      1467      1450      1449      1461      1462
      1450      1449      1461      1463      1450      1449      1461      1464
      1451      1449      1461      1462      1451      1449      1461      1463
      1451      1449      1461      1464      1452      1455      1456      1457
      1452      1455      1456      1458      1453      1452      1455      1456
      1454      1452      1455      1456      1455      1456      1458      1459
      1455      1456      1458      1460      1455      1456      1458      1508
      1456      1458      1508      1509      1456      1458      1508      1510
      1456      1458      1508      1511      1457      1456      1458      1459
      1457      1456      1458      1460      1457      1456      1458      1508
      1458      1508      1511      1512      1458      1508      1511      1513
      1458      1508      1511      1514      1459      1458      1508      1509
      1459      1458      1508      1510      1459      1458      1508      1511
      1460      1458      1508      1509      1460      1458      1508      1510
      1460      1458      1508      1511      1461      1464      1467      1468
      1461      1464      1467      1469      1461      1464      1467      1470
      1462      1461      1464      1465      1462      1461      1464      1466
      1462      1461      1464      1467      1463      1461      1464      1465
      1463      1461      1464      1466      1463      1461      1464      1467
      1464      1467      1470      1471      1464      1467      1470      1472
      1464      1467      1470      1473      1465      1464      1467      1468
      1465      1464      1467      1469      1465      1464      1467      1470
      1466      1464      1467      1468      1466      1464      1467      1469
      1466      1464      1467      1470      1467      1470      1473      1474
      1467      1470      1473      1475      1467      1470      1473      1476
      1468      1467      1470      1471      1468      1467      1470      1472
      1468      1467      1470      1473      1469      1467      1470      1471
      1469      1467      1470      1472      1469      1467      1470      1473
      1470      1473      1476      1477      1470      1473      1476      1478
      1470      1473      1476      1479      1471      1470      1473      1474
      1471      1470      1473      1475      1471      1470      1473      1476
      1472      1470      1473      1474      1472      1470      1473      1475
      1472      1470      1473      1476      1473      1476      1479      1480
      1473      1476      1479      1481      1474      1473      1476      1477
      1474      1473      1476      1478      1474      1473      1476      1479
      1475      1473      1476      1477      1475      1473      1476      1478
      1475      1473      1476      1479      1476      1479      1481      1482
      1476      1479      1481      1483      1477      1476      1479      1480
      1477      1476      1479      1481      1478      1476      1479      1480
      1478      1476      1479      1481      1479      1481      1483      1484
      1479      1481      1483      1485      1479      1481      1483      1486
      1480      1479      1481      1482      1480      1479      1481      1483
      1481      1483      1486      1487      1481      1483      1486      1488
      1481      1483      1486      1489      1482      1481      1483      1484
      1482      1481      1483      1485      1482      1481      1483      1486
      1483      1486      1489      1490      1483      1486      1489      1491
      1483      1486      1489      1492      1484      1483      1486      1487
      1484      1483      1486      1488      1484      1483      1486      1489
      1485      1483      1486      1487      1485      1483      1486      1488
      1485      1483      1486      1489      1486      1489      1492      1493
      1486      1489      1492      1494      1486      1489      1492      1495
      1487      1486      1489      1490      1487      1486      1489      1491
      1487      1486      1489      1492      1488      1486      1489      1490
      1488      1486      1489      1491      1488      1486      1489      1492
      1489      1492      1495      1496      1489      1492      1495      1497
      1489      1492      1495      1498      1490      1489      1492      1493
      1490      1489      1492      1494      1490      1489      1492      1495
      1491      1489      1492      1493      1491      1489      1492      1494
      1491      1489      1492      1495      1492      1495      1498      1499
      1492      1495      1498      1500      1492      1495      1498      1501
      1493      1492      1495      1496      1493      1492      1495      1497
      1493      1492      1495      1498      1494      1492      1495      1496
      1494      1492      1495      1497      1494      1492      1495      1498
      1495      1498      1501      1502      1495      1498      1501      1503
      1495      1498      1501      1504      1496      1495      1498      1499
      1496      1495      1498      1500      1496      1495      1498      1501
      1497      1495      1498      1499      1497      1495      1498      1500
      1497      1495      1498      1501      1498      1501      1504      1505
      1498      1501      1504      1506      1498      1501      1504      1507
      1499      1498      1501      1502      1499      1498      1501      1503
      1499      1498      1501      1504      1500      1498      1501      1502
      1500      1498      1501      1503      1500      1498      1501      1504
      1502      1501      1504      1505      1502      1501      1504      1506
      1502      1501      1504      1507      1503      1501      1504      1505
      1503      1501      1504      1506      1503      1501      1504      1507
      1508      1511      1514      1515      1508      1511      1514      1516
      1508      1511      1514      1517      1509      1508      1511      1512
      1509      1508      1511      1513      1509      1508      1511      1514
      1510      1508      1511      1512      1510      1508      1511      1513
      1510      1508      1511      1514      1511      1514      1517      1518
      1511      1514      1517      1519      1511      1514      1517      1520
      1512      1511      1514      1515      1512      1511      1514      1516
      1512      1511      1514      1517      1513      1511      1514      1515
      1513      1511      1514      1516      1513      1511      1514      1517
      1514      1517      1520      1521      1514      1517      1520      1522
      1514      1517      1520      1523      1515      1514      1517      1518
      1515      1514      1517      1519      1515      1514      1517      1520
      1516      1514      1517      1518      1516      1514      1517      1519
      1516      1514      1517      1520      1517      1520      1523      1524
      1517      1520      1523      1525      1517      1520      1523      1526
      1518      1517      1520      1521      1518      1517      1520      1522
      1518      1517      1520      1523      1519      1517      1520      1521
      1519      1517      1520      1522      1519      1517      1520      1523
      1520      1523      1526      1527      1520      1523      1526      1528
      1520      1523      1526      1529      1521      1520      1523      1524
      1521      1520      1523      1525      1521      1520      1523      1526
      1522      1520      1523      1524      1522      1520      1523      1525
      1522      1520      1523      1526      1523      1526      1529      1530
      1523      1526      1529      1531      1523      1526      1529      1532
      1524      1523      1526      1527      1524      1523      1526      1528
      1524      1523      1526      1529      1525      1523      1526      1527
      1525      1523      1526      1528      1525      1523      1526      1529
      1526      1529      1532      1533      1526      1529      1532      1534
      1526      1529      1532      1535      1527      1526      1529      1530
      1527      1526      1529      1531      1527      1526      1529      1532
      1528      1526      1529      1530      1528      1526      1529      1531
      1528      1526      1529      1532      1529      1532      1535      1536
      1529      1532      1535      1537      1529      1532      1535      1538
      1530      1529      1532      1533      1530      1529      1532      1534
      1530      1529      1532      1535      1531      1529      1532      1533
      1531      1529      1532      1534      1531      1529      1532      1535
      1532      1535      1538      1539      1532      1535      1538      1540
      1532      1535      1538      1541      1533      1532      1535      1536
      1533      1532      1535      1537      1533      1532      1535      1538
      1534      1532      1535      1536      1534      1532      1535      1537
      1534      1532      1535      1538      1535      1538      1541      1542
      1535      1538      1541      1543      1535      1538      1541      1544
      1536      1535      1538      1539      1536      1535      1538      1540
      1536      1535      1538      1541      1537      1535      1538      1539
      1537      1535      1538      1540      1537      1535      1538      1541
      1538      1541      1544      1545      1538      1541      1544      1546
      1538      1541      1544      1547      1539      1538      1541      1542
      1539      1538      1541      1543      1539      1538      1541      1544
      1540      1538      1541      1542      1540      1538      1541      1543
      1540      1538      1541      1544      1541      1544      1547      1548
      1541      1544      1547      1549      1541      1544      1547      1550
      1542      1541      1544      1545      1542      1541      1544      1546
      1542      1541      1544      1547      1543      1541      1544      1545
      1543      1541      1544      1546      1543      1541      1544      1547
      1545      1544      1547      1548      1545      1544      1547      1549
      1545      1544      1547      1550      1546      1544      1547      1548
      1546      1544      1547      1549      1546      1544      1547      1550
      1551      1552      1567      1568      1551      1552      1567      1569
      1551      1552      1567      1573      1552      1551      1555      1556
      1552      1551      1555      1557      1552      1551      1555      1558
      1552      1551      1559      1560      1552      1551      1559      1561
      1552      1551      1559      1562      1552      1551      1563      1564
      1552      1551      1563      1565      1552      1551      1563      1566
      1552      1567      1573      1570      1553      1552      1551      1555
      1553      1552      1551      1559      1553      1552      1551      1563
      1553      1552      1567      1568      1553      1552      1567      1569
      1553      1552      1567      1573      1554      1552      1551      1555
      1554      1552      1551      1559      1554      1552      1551      1563
      1554      1552      1567      1568      1554      1552      1567      1569
      1554      1552      1567      1573      1555      1551      1552      1567
      1555      1551      1559      1560      1555      1551      1559      1561
      1555      1551      1559      1562      1555      1551      1563      1564
      1555      1551      1563      1565      1555      1551      1563      1566
      1556      1555      1551      1559      1556      1555      1551      1563
      1557      1555      1551      1559      1557      1555      1551      1563
      1558      1555      1551      1559      1558      1555      1551      1563
      1559      1551      1552      1567      1559      1551      1563      1564
      1559      1551      1563      1565      1559      1551      1563      1566
      1560      1559      1551      1563      1561      1559      1551      1563
      1562      1559      1551      1563      1563      1551      1552      1567
      1567      1573      1570      1571      1567      1573      1570      1572
      1567      1573      1570      1574      1568      1567      1573      1570
      1569      1567      1573      1570      1570      1574      1575      1576
      1570      1574      1575      1577      1570      1574      1575      1578
      1571      1570      1574      1575      1572      1570      1574      1575
      1573      1570      1574      1575      1574      1575      1578      1579
      1574      1575      1578      1580      1574      1575      1578      1586
      1575      1578      1580      1581      1575      1578      1586      1587
      1575      1578      1586      1588      1575      1578      1586      1589
      1576      1575      1578      1579      1576      1575      1578      1580
      1576      1575      1578      1586      1577      1575      1578      1579
      1577      1575      1578      1580      1577      1575      1578      1586
      1578      1580      1581      1582      1578      1580      1581      1583
      1578      1586      1589      1590      1579      1578      1580      1581
      1579      1578      1586      1587      1579      1578      1586      1588
      1579      1578      1586      1589      1580      1578      1586      1587
      1580      1578      1586      1588      1580      1578      1586      1589
      1580      1581      1583      1584      1580      1581      1583      1585
      1580      1581      1583      1595      1581      1580      1578      1586
      1581      1583      1595      1596      1581      1583      1595      1597
      1581      1583      1595      1598      1582      1581      1583      1584
      1582      1581      1583      1585      1582      1581      1583      1595
      1583      1595      1598      1599      1583      1595      1598      1600
      1583      1595      1598      1601      1584      1583      1595      1596
      1584      1583      1595      1597      1584      1583      1595      1598
      1585      1583      1595      1596      1585      1583      1595      1597
      1585      1583      1595      1598      1586      1589      1590      1591
      1586      1589      1590      1592      1587      1586      1589      1590
      1588      1586      1589      1590      1589      1590      1592      1593
      1589      1590      1592      1594      1589      1590      1592      1642
      1590      1592      1642      1643      1590      1592      1642      1644
      1590      1592      1642      1645      1591      1590      1592      1593
      1591      1590      1592      1594      1591      1590      1592      1642
      1592      1642      1645      1646      1592      1642      1645      1647
      1592      1642      1645      1648      1593      1592      1642      1643
      1593      1592      1642      1644      1593      1592      1642      1645
      1594      1592      1642      1643      1594      1592      1642      1644
      1594      1592      1642      1645      1595      1598      1601      1602
      1595      1598      1601      1603      1595      1598      1601      1604
      1596      1595      1598      1599      1596      1595      1598      1600
      1596      1595      1598      1601      1597      1595      1598      1599
      1597      1595      1598      1600      1597      1595      1598      1601
      1598      1601      1604      1605      1598      1601      1604      1606
      1598      1601      1604      1607      1599      1598      1601      1602
      1599      1598      1601      1603      1599      1598      1601      1604
      1600      1598      1601      1602      1600      1598      1601      1603
      1600      1598      1601      1604      1601      1604      1607      1608
      1601      1604      1607      1609      1601      1604      1607      1610
      1602      1601      1604      1605      1602      1601      1604      1606
      1602      1601      1604      1607      1603      1601      1604      1605
      1603      1601      1604      1606      1603      1601      1604      1607
      1604      1607      1610      1611      1604      1607      1610      1612
      1604      1607      1610      1613      1605      1604      1607      1608
      1605      1604      1607      1609      1605      1604      1607      1610
      1606      1604      1607      1608      1606      1604      1607      1609
      1606      1604      1607      1610      1607      1610      1613      1614
      1607      1610      1613      1615      1608      1607      1610      1611
      1608      1607      1610      1612      1608      1607      1610      1613
      1609      1607      1610      1611      1609      1607      1610      1612
      1609      1607      1610      1613      1610      1613      1615      1616
      1610      1613      1615      1617      1611      1610      1613      1614
      1611      1610      1613      1615      1612      1610      1613      1614
      1612      1610      1613      1615      1613      1615      1617      1618
      1613      1615      1617      1619      1613      1615      1617      1620
      1614      1613      1615      1616      1614      1613      1615      1617
      1615      1617      1620      1621      1615      1617      1620      1622
      1615      1617      1620      1623      1616      1615      1617      1618
      1616      1615      1617      1619      1616      1615      1617      1620
      1617      1620      1623      1624      1617      1620      1623      1625
      1617      1620      1623      1626      1618      1617      1620      1621
      1618      1617      1620      1622      1618      1617      1620      1623
      1619      1617      1620      1621      1619      1617      1620      1622
      1619      1617      1620      1623      1620      1623      1626      1627
      1620      1623      1626      1628      1620      1623      1626      1629
      1621      1620      1623      1624      1621      1620      1623      1625
      1621      1620      1623      1626      1622      1620      1623      1624
      1622      1620      1623      1625      1622      1620      1623      1626
      1623      1626      1629      1630      1623      1626      1629      1631
      1623      1626      1629      1632      1624      1623      1626      1627
      1624      1623      1626      1628      1624      1623      1626      1629
      1625      1623      1626      1627      1625      1623      1626      1628
      1625      1623      1626      1629      1626      1629      1632      1633
      1626      1629      1632      1634      1626      1629      1632      1635
      1627      1626      1629      1630      1627      1626      1629      1631
      1627      1626      1629      1632      1628      1626      1629      1630
      1628      1626      1629      1631      1628      1626      1629      1632
      1629      1632      1635      1636      1629      1632      1635      1637
      1629      1632      1635      1638      1630      1629      1632      1633
      1630      1629      1632      1634      1630      1629      1632      1635
      1631      1629      1632      1633      1631      1629      1632      1634
      1631      1629      1632      1635      1632      1635      1638      1639
      1632      1635      1638      1640      1632      1635      1638      1641
      1633      1632      1635      1636      1633      1632      1635      1637
      1633      1632      1635      1638      1634      1632      1635      1636
      1634      1632      1635      1637      1634      1632      1635      1638
      1636      1635      1638      1639      1636      1635      1638      1640
      1636      1635      1638      1641      1637      1635      1638      1639
      1637      1635      1638      1640      1637      1635      1638      1641
      1642      1645      1648      1649      1642      1645      1648      1650
      1642      1645      1648      1651      1643      1642      1645      1646
      1643      1642      1645      1647      1643      1642      1645      1648
      1644      1642      1645      1646      1644      1642      1645      1647
      1644      1642      1645      1648      1645      1648      1651      1652
      1645      1648      1651      1653      1645      1648      1651      1654
      1646      1645      1648      1649      1646      1645      1648      1650
      1646      1645      1648      1651      1647      1645      1648      1649
      1647      1645      1648      1650      1647      1645      1648      1651
      1648      1651      1654      1655      1648      1651      1654      1656
      1648      1651      1654      1657      1649      1648      1651      1652
      1649      1648      1651      1653      1649      1648      1651      1654
      1650      1648      1651      1652      1650      1648      1651      1653
      1650      1648      1651      1654      1651      1654      1657      1658
      1651      1654      1657      1659      1651      1654      1657      1660
      1652      1651      1654      1655      1652      1651      1654      1656
      1652      1651      1654      1657      1653      1651      1654      1655
      1653      1651      1654      1656      1653      1651      1654      1657
      1654      1657      1660      1661      1654      1657      1660      1662
      1654      1657      1660      1663      1655      1654      1657      1658
      1655      1654      1657      1659      1655      1654      1657      1660
      1656      1654      1657      1658      1656      1654      1657      1659
      1656      1654      1657      1660      1657      1660      1663      1664
      1657      1660      1663      1665      1657      1660      1663      1666
      1658      1657      1660      1661      1658      1657      1660      1662
      1658      1657      1660      1663      1659      1657      1660      1661
      1659      1657      1660      1662      1659      1657      1660      1663
      1660      1663      1666      1667      1660      1663      1666      1668
      1660      1663      1666      1669      1661      1660      1663      1664
      1661      1660      1663      1665      1661      1660      1663      1666
      1662      1660      1663      1664      1662      1660      1663      1665
      1662      1660      1663      1666      1663      1666      1669      1670
      1663      1666      1669      1671      1663      1666      1669      1672
      1664      1663      1666      1667      1664      1663      1666      1668
      1664      1663      1666      1669      1665      1663      1666      1667
      1665      1663      1666      1668      1665      1663      1666      1669
      1666      1669      1672      1673      1666      1669      1672      1674
      1666      1669      1672      1675      1667      1666      1669      1670
      1667      1666      1669      1671      1667      1666      1669      1672
      1668      1666      1669      1670      1668      1666      1669      1671
      1668      1666      1669      1672      1669      1672      1675      1676
      1669      1672      1675      1677      1669      1672      1675      1678
      1670      1669      1672      1673      1670      1669      1672      1674
      1670      1669      1672      1675      1671      1669      1672      1673
      1671      1669      1672      1674      1671      1669      1672      1675
      1672      1675      1678      1679      1672      1675      1678      1680
      1672      1675      1678      1681      1673      1672      1675      1676
      1673      1672      1675      1677      1673      1672      1675      1678
      1674      1672      1675      1676      1674      1672      1675      1677
      1674      1672      1675      1678      1675      1678      1681      1682
      1675      1678      1681      1683      1675      1678      1681      1684
      1676      1675      1678      1679      1676      1675      1678      1680
      1676      1675      1678      1681      1677      1675      1678      1679
      1677      1675      1678      1680      1677      1675      1678      1681
      1679      1678      1681      1682      1679      1678      1681      1683
      1679      1678      1681      1684      1680      1678      1681      1682
      1680      1678      1681      1683      1680      1678      1681      1684
      1685      1689      1691      1692      1685      1689      1691      1693
      1685      1689      1694      1695      1685      1689      1694      1696
      1685      1689      1694      1700      1686      1685      1689      1690
      1686      1685      1689      1691      1686      1685      1689      1694
      1687      1685      1689      1690      1687      1685      1689      1691
      1687      1685      1689      1694      1688      1685      1689      1690
      1688      1685      1689      1691      1688      1685      1689      1694
      1689      1694      1700      1697      1690      1689      1691      1692
      1690      1689      1691      1693      1690      1689      1694      1695
      1690      1689      1694      1696      1690      1689      1694      1700
      1691      1689      1694      1695      1691      1689      1694      1696
      1691      1689      1694      1700      1692      1691      1689      1694
      1693      1691      1689      1694      1694      1700      1697      1698
      1694      1700      1697      1699      1694      1700      1697      1701
      1695      1694      1700      1697      1696      1694      1700      1697
      1697      1701      1702      1703      1697      1701      1702      1704
      1697      1701      1702      1705      1698      1697      1701      1702
      1699      1697      1701      1702      1700      1697      1701      1702
      1701      1702      1705      1706      1701      1702      1705      1707
      1701      1702      1705      1713      1702      1705      1707      1708
      1702      1705      1713      1714      1702      1705      1713      1715
      1702      1705      1713      1716      1703      1702      1705      1706
      1703      1702      1705      1707      1703      1702      1705      1713
      1704      1702      1705      1706      1704      1702      1705      1707
      1704      1702      1705      1713      1705      1707      1708      1709
      1705      1707      1708      1710      1705      1713      1716      1717
      1706      1705      1707      1708      1706      1705      1713      1714
      1706      1705      1713      1715      1706      1705      1713      1716
      1707      1705      1713      1714      1707      1705      1713      1715
      1707      1705      1713      1716      1707      1708      1710      1711
      1707      1708      1710      1712      1707      1708      1710      1722
      1708      1707      1705      1713      1708      1710      1722      1723
      1708      1710      1722      1724      1708      1710      1722      1725
      1709      1708      1710      1711      1709      1708      1710      1712
      1709      1708      1710      1722      1710      1722      1725      1726
      1710      1722      1725      1727      1710      1722      1725      1728
      1711      1710      1722      1723      1711      1710      1722      1724
      1711      1710      1722      1725      1712      1710      1722      1723
      1712      1710      1722      1724      1712      1710      1722      1725
      1713      1716      1717      1718      1713      1716      1717      1719
      1714      1713      1716      1717      1715      1713      1716      1717
      1716      1717      1719      1720      1716      1717      1719      1721
      1716      1717      1719      1769      1717      1719      1769      1770
      1717      1719      1769      1771      1717      1719      1769      1772
      1718      1717      1719      1720      1718      1717      1719      1721
      1718      1717      1719      1769      1719      1769      1772      1773
      1719      1769      1772      1774      1719      1769      1772      1775
      1720      1719      1769      1770      1720      1719      1769      1771
      1720      1719      1769      1772      1721      1719      1769      1770
      1721      1719      1769      1771      1721      1719      1769      1772
      1722      1725      1728      1729      1722      1725      1728      1730
      1722      1725      1728      1731      1723      1722      1725      1726
      1723      1722      1725      1727      1723      1722      1725      1728
      1724      1722      1725      1726      1724      1722      1725      1727
      1724      1722      1725      1728      1725      1728      1731      1732
      1725      1728      1731      1733      1725      1728      1731      1734
      1726      1725      1728      1729      1726      1725      1728      1730
      1726      1725      1728      1731      1727      1725      1728      1729
      1727      1725      1728      1730      1727      1725      1728      1731
      1728      1731      1734      1735      1728      1731      1734      1736
      1728      1731      1734      1737      1729      1728      1731      1732
      1729      1728      1731      1733      1729      1728      1731      1734
      1730      1728      1731      1732      1730      1728      1731      1733
      1730      1728      1731      1734      1731      1734      1737      1738
      1731      1734      1737      1739      1731      1734      1737      1740
      1732      1731      1734      1735      1732      1731      1734      1736
      1732      1731      1734      1737      1733      1731      1734      1735
      1733      1731      1734      1736      1733      1731      1734      1737
      1734      1737      1740      1741      1734      1737      1740      1742
      1735      1734      1737      1738      1735      1734      1737      1739
      1735      1734      1737      1740      1736      1734      1737      1738
      1736      1734      1737      1739      1736      1734      1737      1740
      1737      1740      1742      1743      1737      1740      1742      1744
      1738      1737      1740      1741      1738      1737      1740      1742
      1739      1737      1740      1741      1739      1737      1740      1742
      1740      1742      1744      1745      1740      1742      1744      1746
      1740      1742      1744      1747      1741      1740      1742      1743
      1741      1740      1742      1744      1742      1744      1747      1748
      1742      1744      1747      1749      1742      1744      1747      1750
      1743      1742      1744      1745      1743      1742      1744      1746
      1743      1742      1744      1747      1744      1747      1750      1751
      1744      1747      1750      1752      1744      1747      1750      1753
      1745      1744      1747      1748      1745      1744      1747      1749
      1745      1744      1747      1750      1746      1744      1747      1748
      1746      1744      1747      1749      1746      1744      1747      1750
      1747      1750      1753      1754      1747      1750      1753      1755
      1747      1750      1753      1756      1748      1747      1750      1751
      1748      1747      1750      1752      1748      1747      1750      1753
      1749      1747      1750      1751      1749      1747      1750      1752
      1749      1747      1750      1753      1750      1753      1756      1757
      1750      1753      1756      1758      1750      1753      1756      1759
      1751      1750      1753      1754      1751      1750      1753      1755
      1751      1750      1753      1756      1752      1750      1753      1754
      1752      1750      1753      1755      1752      1750      1753      1756
      1753      1756      1759      1760      1753      1756      1759      1761
      1753      1756      1759      1762      1754      1753      1756      1757
      1754      1753      1756      1758      1754      1753      1756      1759
      1755      1753      1756      1757      1755      1753      1756      1758
      1755      1753      1756      1759      1756      1759      1762      1763
      1756      1759      1762      1764      1756      1759      1762      1765
      1757      1756      1759      1760      1757      1756      1759      1761
      1757      1756      1759      1762      1758      1756      1759      1760
      1758      1756      1759      1761      1758      1756      1759      1762
      1759      1762      1765      1766      1759      1762      1765      1767
      1759      1762      1765      1768      1760      1759      1762      1763
      1760      1759      1762      1764      1760      1759      1762      1765
      1761      1759      1762      1763      1761      1759      1762      1764
      1761      1759      1762      1765      1763      1762      1765      1766
      1763      1762      1765      1767      1763      1762      1765      1768
      1764      1762      1765      1766      1764      1762      1765      1767
      1764      1762      1765      1768      1769      1772      1775      1776
      1769      1772      1775      1777      1769      1772      1775      1778
      1770      1769      1772      1773      1770      1769      1772      1774
      1770      1769      1772      1775      1771      1769      1772      1773
      1771      1769      1772      1774      1771      1769      1772      1775
      1772      1775      1778      1779      1772      1775      1778      1780
      1772      1775      1778      1781      1773      1772      1775      1776
      1773      1772      1775      1777      1773      1772      1775      1778
      1774      1772      1775      1776      1774      1772      1775      1777
      1774      1772      1775      1778      1775      1778      1781      1782
      1775      1778      1781      1783      1775      1778      1781      1784
      1776      1775      1778      1779      1776      1775      1778      1780
      1776      1775      1778      1781      1777      1775      1778      1779
      1777      1775      1778      1780      1777      1775      1778      1781
      1778      1781      1784      1785      1778      1781      1784      1786
      1778      1781      1784      1787      1779      1778      1781      1782
      1779      1778      1781      1783      1779      1778      1781      1784
      1780      1778      1781      1782      1780      1778      1781      1783
      1780      1778      1781      1784      1781      1784      1787      1788
      1781      1784      1787      1789      1781      1784      1787      1790
      1782      1781      1784      1785      1782      1781      1784      1786
      1782      1781      1784      1787      1783      1781      1784      1785
      1783      1781      1784      1786      1783      1781      1784      1787
      1784      1787      1790      1791      1784      1787      1790      1792
      1784      1787      1790      1793      1785      1784      1787      1788
      1785      1784      1787      1789      1785      1784      1787      1790
      1786      1784      1787      1788      1786      1784      1787      1789
      1786      1784      1787      1790      1787      1790      1793      1794
      1787      1790      1793      1795      1787      1790      1793      1796
      1788      1787      1790      1791      1788      1787      1790      1792
      1788      1787      1790      1793      1789      1787      1790      1791
      1789      1787      1790      1792      1789      1787      1790      1793
      1790      1793      1796      1797      1790      1793      1796      1798
      1790      1793      1796      1799      1791      1790      1793      1794
      1791      1790      1793      1795      1791      1790      1793      1796
      1792      1790      1793      1794      1792      1790      1793      1795
      1792      1790      1793      1796      1793      1796      1799      1800
      1793      1796      1799      1801      1793      1796      1799      1802
      1794      1793      1796      1797      1794      1793      1796      1798
      1794      1793      1796      1799      1795      1793      1796      1797
      1795      1793      1796      1798      1795      1793      1796      1799
      1796      1799      1802      1803      1796      1799      1802      1804
      1796      1799      1802      1805      1797      1796      1799      1800
      1797      1796      1799      1801      1797      1796      1799      1802
      1798      1796      1799      1800      1798      1796      1799      1801
      1798      1796      1799      1802      1799      1802      1805      1806
      1799      1802      1805      1807      1799      1802      1805      1808
      1800      1799      1802      1803      1800      1799      1802      1804
      1800      1799      1802      1805      1801      1799      1802      1803
      1801      1799      1802      1804      1801      1799      1802      1805
      1802      1805      1808      1809      1802      1805      1808      1810
      1802      1805      1808      1811      1803      1802      1805      1806
      1803      1802      1805      1807      1803      1802      1805      1808
      1804      1802      1805      1806      1804      1802      1805      1807
      1804      1802      1805      1808      1806      1805      1808      1809
      1806      1805      1808      1810      1806      1805      1808      1811
      1807      1805      1808      1809      1807      1805      1808      1810
      1807      1805      1808      1811      1812      1813      1828      1829
      1812      1813      1828      1830      1812      1813      1828      1834
      1813      1812      1816      1817      1813      1812      1816      1818
      1813      1812      1816      1819      1813      1812      1820      1821
      1813      1812      1820      1822      1813      1812      1820      1823
      1813      1812      1824      1825      1813      1812      1824      1826
      1813      1812      1824      1827      1813      1828      1834      1831
      1814      1813      1812      1816      1814      1813      1812      1820
      1814      1813      1812      1824      1814      1813      1828      1829
      1814      1813      1828      1830      1814      1813      1828      1834
      1815      1813      1812      1816      1815      1813      1812      1820
      1815      1813      1812      1824      1815      1813      1828      1829
      1815      1813      1828      1830      1815      1813      1828      1834
      1816      1812      1813      1828      1816      1812      1820      1821
      1816      1812      1820      1822      1816      1812      1820      1823
      1816      1812      1824      1825      1816      1812      1824      1826
      1816      1812      1824      1827      1817      1816      1812      1820
      1817      1816      1812      1824      1818      1816      1812      1820
      1818      1816      1812      1824      1819      1816      1812      1820
      1819      1816      1812      1824      1820      1812      1813      1828
      1820      1812      1824      1825      1820      1812      1824      1826
      1820      1812      1824      1827      1821      1820      1812      1824
      1822      1820      1812      1824      1823      1820      1812      1824
      1824      1812      1813      1828      1828      1834      1831      1832
      1828      1834      1831      1833      1828      1834      1831      1835
      1829      1828      1834      1831      1830      1828      1834      1831
      1831      1835      1836      1837      1831      1835      1836      1838
      1831      1835      1836      1839      1832      1831      1835      1836
      1833      1831      1835      1836      1834      1831      1835      1836
      1835      1836      1839      1840      1835      1836      1839      1841
      1835      1836      1839      1847      1836      1839      1841      1842
      1836      1839      1847      1848      1836      1839      1847      1849
      1836      1839      1847      1850      1837      1836      1839      1840
      1837      1836      1839      1841      1837      1836      1839      1847
      1838      1836      1839      1840      1838      1836      1839      1841
      1838      1836      1839      1847      1839      1841      1842      1843
      1839      1841      1842      1844      1839      1847      1850      1851
      1840      1839      1841      1842      1840      1839      1847      1848
      1840      1839      1847      1849      1840      1839      1847      1850
      1841      1839      1847      1848      1841      1839      1847      1849
      1841      1839      1847      1850      1841      1842      1844      1845
      1841      1842      1844      1846      1841      1842      1844      1856
      1842      1841      1839      1847      1842      1844      1856      1857
      1842      1844      1856      1858      1842      1844      1856      1859
      1843      1842      1844      1845      1843      1842      1844      1846
      1843      1842      1844      1856      1844      1856      1859      1860
      1844      1856      1859      1861      1844      1856      1859      1862
      1845      1844      1856      1857      1845      1844      1856      1858
      1845      1844      1856      1859      1846      1844      1856      1857
      1846      1844      1856      1858      1846      1844      1856      1859
      1847      1850      1851      1852      1847      1850      1851      1853
      1848      1847      1850      1851      1849      1847      1850      1851
      1850      1851      1853      1854      1850      1851      1853      1855
      1850      1851      1853      1903      1851      1853      1903      1904
      1851      1853      1903      1905      1851      1853      1903      1906
      1852      1851      1853      1854      1852      1851      1853      1855
      1852      1851      1853      1903      1853      1903      1906      1907
      1853      1903      1906      1908      1853      1903      1906      1909
      1854      1853      1903      1904      1854      1853      1903      1905
      1854      1853      1903      1906      1855      1853      1903      1904
      1855      1853      1903      1905      1855      1853      1903      1906
      1856      1859      1862      1863      1856      1859      1862      1864
      1856      1859      1862      1865      1857      1856      1859      1860
      1857      1856      1859      1861      1857      1856      1859      1862
      1858      1856      1859      1860      1858      1856      1859      1861
      1858      1856      1859      1862      1859      1862      1865      1866
      1859      1862      1865      1867      1859      1862      1865      1868
      1860      1859      1862      1863      1860      1859      1862      1864
      1860      1859      1862      1865      1861      1859      1862      1863
      1861      1859      1862      1864      1861      1859      1862      1865
      1862      1865      1868      1869      1862      1865      1868      1870
      1862      1865      1868      1871      1863      1862      1865      1866
      1863      1862      1865      1867      1863      1862      1865      1868
      1864      1862      1865      1866      1864      1862      1865      1867
      1864      1862      1865      1868      1865      1868      1871      1872
      1865      1868      1871      1873      1865      1868      1871      1874
      1866      1865      1868      1869      1866      1865      1868      1870
      1866      1865      1868      1871      1867      1865      1868      1869
      1867      1865      1868      1870      1867      1865      1868      1871
      1868      1871      1874      1875      1868      1871      1874      1876
      1869      1868      1871      1872      1869      1868      1871      1873
      1869      1868      1871      1874      1870      1868      1871      1872
      1870      1868      1871      1873      1870      1868      1871      1874
      1871      1874      1876      1877      1871      1874      1876      1878
      1872      1871      1874      1875      1872      1871      1874      1876
      1873      1871      1874      1875      1873      1871      1874      1876
      1874      1876      1878      1879      1874      1876      1878      1880
      1874      1876      1878      1881      1875      1874      1876      1877
      1875      1874      1876      1878      1876      1878      1881      1882
      1876      1878      1881      1883      1876      1878      1881      1884
      1877      1876      1878      1879      1877      1876      1878      1880
      1877      1876      1878      1881      1878      1881      1884      1885
      1878      1881      1884      1886      1878      1881      1884      1887
      1879      1878      1881      1882      1879      1878      1881      1883
      1879      1878      1881      1884      1880      1878      1881      1882
      1880      1878      1881      1883      1880      1878      1881      1884
      1881      1884      1887      1888      1881      1884      1887      1889
      1881      1884      1887      1890      1882      1881      1884      1885
      1882      1881      1884      1886      1882      1881      1884      1887
      1883      1881      1884      1885      1883      1881      1884      1886
      1883      1881      1884      1887      1884      1887      1890      1891
      1884      1887      1890      1892      1884      1887      1890      1893
      1885      1884      1887      1888      1885      1884      1887      1889
      1885      1884      1887      1890      1886      1884      1887      1888
      1886      1884      1887      1889      1886      1884      1887      1890
      1887      1890      1893      1894      1887      1890      1893      1895
      1887      1890      1893      1896      1888      1887      1890      1891
      1888      1887      1890      1892      1888      1887      1890      1893
      1889      1887      1890      1891      1889      1887      1890      1892
      1889      1887      1890      1893      1890      1893      1896      1897
      1890      1893      1896      1898      1890      1893      1896      1899
      1891      1890      1893      1894      1891      1890      1893      1895
      1891      1890      1893      1896      1892      1890      1893      1894
      1892      1890      1893      1895      1892      1890      1893      1896
      1893      1896      1899      1900      1893      1896      1899      1901
      1893      1896      1899      1902      1894      1893      1896      1897
      1894      1893      1896      1898      1894      1893      1896      1899
      1895      1893      1896      1897      1895      1893      1896      1898
      1895      1893      1896      1899      1897      1896      1899      1900
      1897      1896      1899      1901      1897      1896      1899      1902
      1898      1896      1899      1900      1898      1896      1899      1901
      1898      1896      1899      1902      1903      1906      1909      1910
      1903      1906      1909      1911      1903      1906      1909      1912
      1904      1903      1906      1907      1904      1903      1906      1908
      1904      1903      1906      1909      1905      1903      1906      1907
      1905      1903      1906      1908      1905      1903      1906      1909
      1906      1909      1912      1913      1906      1909      1912      1914
      1906      1909      1912      1915      1907      1906      1909      1910
      1907      1906      1909      1911      1907      1906      1909      1912
      1908      1906      1909      1910      1908      1906      1909      1911
      1908      1906      1909      1912      1909      1912      1915      1916
      1909      1912      1915      1917      1909      1912      1915      1918
      1910      1909      1912      1913      1910      1909      1912      1914
      1910      1909      1912      1915      1911      1909      1912      1913
      1911      1909      1912      1914      1911      1909      1912      1915
      1912      1915      1918      1919      1912      1915      1918      1920
      1912      1915      1918      1921      1913      1912      1915      1916
      1913      1912      1915      1917      1913      1912      1915      1918
      1914      1912      1915      1916      1914      1912      1915      1917
      1914      1912      1915      1918      1915      1918      1921      1922
      1915      1918      1921      1923      1915      1918      1921      1924
      1916      1915      1918      1919      1916      1915      1918      1920
      1916      1915      1918      1921      1917      1915      1918      1919
      1917      1915      1918      1920      1917      1915      1918      1921
      1918      1921      1924      1925      1918      1921      1924      1926
      1918      1921      1924      1927      1919      1918      1921      1922
      1919      1918      1921      1923      1919      1918      1921      1924
      1920      1918      1921      1922      1920      1918      1921      1923
      1920      1918      1921      1924      1921      1924      1927      1928
      1921      1924      1927      1929      1921      1924      1927      1930
      1922      1921      1924      1925      1922      1921      1924      1926
      1922      1921      1924      1927      1923      1921      1924      1925
      1923      1921      1924      1926      1923      1921      1924      1927
      1924      1927      1930      1931      1924      1927      1930      1932
      1924      1927      1930      1933      1925      1924      1927      1928
      1925      1924      1927      1929      1925      1924      1927      1930
      1926      1924      1927      1928      1926      1924      1927      1929
      1926      1924      1927      1930      1927      1930      1933      1934
      1927      1930      1933      1935      1927      1930      1933      1936
      1928      1927      1930      1931      1928      1927      1930      1932
      1928      1927      1930      1933      1929      1927      1930      1931
      1929      1927      1930      1932      1929      1927      1930      1933
      1930      1933      1936      1937      1930      1933      1936      1938
      1930      1933      1936      1939      1931      1930      1933      1934
      1931      1930      1933      1935      1931      1930      1933      1936
      1932      1930      1933      1934      1932      1930      1933      1935
      1932      1930      1933      1936      1933      1936      1939      1940
      1933      1936      1939      1941      1933      1936      1939      1942
      1934      1933      1936      1937      1934      1933      1936      1938
      1934      1933      1936      1939      1935      1933      1936      1937
      1935      1933      1936      1938      1935      1933      1936      1939
      1936      1939      1942      1943      1936      1939      1942      1944
      1936      1939      1942      1945      1937      1936      1939      1940
      1937      1936      1939      1941      1937      1936      1939      1942
      1938      1936      1939      1940      1938      1936      1939      1941
      1938      1936      1939      1942      1940      1939      1942      1943
      1940      1939      1942      1944      1940      1939      1942      1945
      1941      1939      1942      1943      1941      1939      1942      1944
      1941      1939      1942      1945      1946      1947      1962      1963
      1946      1947      1962      1964      1946      1947      1962      1968
      1947      1946      1950      1951      1947      1946      1950      1952
      1947      1946      1950      1953      1947      1946      1954      1955
      1947      1946      1954      1956      1947      1946      1954      1957
      1947      1946      1958      1959      1947      1946      1958      1960
      1947      1946      1958      1961      1947      1962      1968      1965
      1948      1947      1946      1950      1948      1947      1946      1954
      1948      1947      1946      1958      1948      1947      1962      1963
      1948      1947      1962      1964      1948      1947      1962      1968
      1949      1947      1946      1950      1949      1947      1946      1954
      1949      1947      1946      1958      1949      1947      1962      1963
      1949      1947      1962      1964      1949      1947      1962      1968
      1950      1946      1947      1962      1950      1946      1954      1955
      1950      1946      1954      1956      1950      1946      1954      1957
      1950      1946      1958      1959      1950      1946      1958      1960
      1950      1946      1958      1961      1951      1950      1946      1954
      1951      1950      1946      1958      1952      1950      1946      1954
      1952      1950      1946      1958      1953      1950      1946      1954
      1953      1950      1946      1958      1954      1946      1947      1962
      1954      1946      1958      1959      1954      1946      1958      1960
      1954      1946      1958      1961      1955      1954      1946      1958
      1956      1954      1946      1958      1957      1954      1946      1958
      1958      1946      1947      1962      1962      1968      1965      1966
      1962      1968      1965      1967      1962      1968      1965      1969
      1963      1962      1968      1965      1964      1962      1968      1965
      1965      1969      1970      1971      1965      1969      1970      1972
      1965      1969      1970      1973      1966      1965      1969      1970
      1967      1965      1969      1970      1968      1965      1969      1970
      1969      1970      1973      1974      1969      1970      1973      1975
      1969      1970      1973      1981      1970      1973      1975      1976
      1970      1973      1981      1982      1970      1973      1981      1983
      1970      1973      1981      1984      1971      1970      1973      1974
      1971      1970      1973      1975      1971      1970      1973      1981
      1972      1970      1973      1974      1972      1970      1973      1975
      1972      1970      1973      1981      1973      1975      1976      1977
      1973      1975      1976      1978      1973      1981      1984      1985
      1974      1973      1975      1976      1974      1973      1981      1982
      1974      1973      1981      1983      1974      1973      1981      1984
      1975      1973      1981      1982      1975      1973      1981      1983
      1975      1973      1981      1984      1975      1976      1978      1979
      1975      1976      1978      1980      1975      1976      1978      1990
      1976      1975      1973      1981      1976      1978      1990      1991
      1976      1978      1990      1992      1976      1978      1990      1993
      1977      1976      1978      1979      1977      1976      1978      1980
      1977      1976      1978      1990      1978      1990      1993      1994
      1978      1990      1993      1995      1978      1990      1993      1996
      1979      1978      1990      1991      1979      1978      1990      1992
      1979      1978      1990      1993      1980      1978      1990      1991
      1980      1978      1990      1992      1980      1978      1990      1993
      1981      1984      1985      1986      1981      1984      1985      1987
      1982      1981      1984      1985      1983      1981      1984      1985
      1984      1985      1987      1988      1984      1985      1987      1989
      1984      1985      1987      2037      1985      1987      2037      2038
      1985      1987      2037      2039      1985      1987      2037      2040
      1986      1985      1987      1988      1986      1985      1987      1989
      1986      1985      1987      2037      1987      2037      2040      2041
      1987      2037      2040      2042      1987      2037      2040      2043
      1988      1987      2037      2038      1988      1987      2037      2039
      1988      1987      2037      2040      1989      1987      2037      2038
      1989      1987      2037      2039      1989      1987      2037      2040
      1990      1993      1996      1997      1990      1993      1996      1998
      1990      1993      1996      1999      1991      1990      1993      1994
      1991      1990      1993      1995      1991      1990      1993      1996
      1992      1990      1993      1994      1992      1990      1993      1995
      1992      1990      1993      1996      1993      1996      1999      2000
      1993      1996      1999      2001      1993      1996      1999      2002
      1994      1993      1996      1997      1994      1993      1996      1998
      1994      1993      1996      1999      1995      1993      1996      1997
      1995      1993      1996      1998      1995      1993      1996      1999
      1996      1999      2002      2003      1996      1999      2002      2004
      1996      1999      2002      2005      1997      1996      1999      2000
      1997      1996      1999      2001      1997      1996      1999      2002
      1998      1996      1999      2000      1998      1996      1999      2001
      1998      1996      1999      2002      1999      2002      2005      2006
      1999      2002      2005      2007      1999      2002      2005      2008
      2000      1999      2002      2003      2000      1999      2002      2004
      2000      1999      2002      2005      2001      1999      2002      2003
      2001      1999      2002      2004      2001      1999      2002      2005
      2002      2005      2008      2009      2002      2005      2008      2010
      2003      2002      2005      2006      2003      2002      2005      2007
      2003      2002      2005      2008      2004      2002      2005      2006
      2004      2002      2005      2007      2004      2002      2005      2008
      2005      2008      2010      2011      2005      2008      2010      2012
      2006      2005      2008      2009      2006      2005      2008      2010
      2007      2005      2008      2009      2007      2005      2008      2010
      2008      2010      2012      2013      2008      2010      2012      2014
      2008      2010      2012      2015      2009      2008      2010      2011
      2009      2008      2010      2012      2010      2012      2015      2016
      2010      2012      2015      2017      2010      2012      2015      2018
      2011      2010      2012      2013      2011      2010      2012      2014
      2011      2010      2012      2015      2012      2015      2018      2019
      2012      2015      2018      2020      2012      2015      2018      2021
      2013      2012      2015      2016      2013      2012      2015      2017
      2013      2012      2015      2018      2014      2012      2015      2016
      2014      2012      2015      2017      2014      2012      2015      2018
      2015      2018      2021      2022      2015      2018      2021      2023
      2015      2018      2021      2024      2016      2015      2018      2019
      2016      2015      2018      2020      2016      2015      2018      2021
      2017      2015      2018      2019      2017      2015      2018      2020
      2017      2015      2018      2021      2018      2021      2024      2025
      2018      2021      2024      2026      2018      2021      2024      2027
      2019      2018      2021      2022      2019      2018      2021      2023
      2019      2018      2021      2024      2020      2018      2021      2022
      2020      2018      2021      2023      2020      2018      2021      2024
      2021      2024      2027      2028      2021      2024      2027      2029
      2021      2024      2027      2030      2022      2021      2024      2025
      2022      2021      2024      2026      2022      2021      2024      2027
      2023      2021      2024      2025      2023      2021      2024      2026
      2023      2021      2024      2027      2024      2027      2030      2031
      2024      2027      2030      2032      2024      2027      2030      2033
      2025      2024      2027      2028      2025      2024      2027      2029
      2025      2024      2027      2030      2026      2024      2027      2028
      2026      2024      2027      2029      2026      2024      2027      2030
      2027      2030      2033      2034      2027      2030      2033      2035
      2027      2030      2033      2036      2028      2027      2030      2031
      2028      2027      2030      2032      2028      2027      2030      2033
      2029      2027      2030      2031      2029      2027      2030      2032
      2029      2027      2030      2033      2031      2030      2033      2034
      2031      2030      2033      2035      2031      2030      2033      2036
      2032      2030      2033      2034      2032      2030      2033      2035
      2032      2030      2033      2036      2037      2040      2043      2044
      2037      2040      2043      2045      2037      2040      2043      2046
      2038      2037      2040      2041      2038      2037      2040      2042
      2038      2037      2040      2043      2039      2037      2040      2041
      2039      2037      2040      2042      2039      2037      2040      2043
      2040      2043      2046      2047      2040      2043      2046      2048
      2040      2043      2046      2049      2041      2040      2043      2044
      2041      2040      2043      2045      2041      2040      2043      2046
      2042      2040      2043      2044      2042      2040      2043      2045
      2042      2040      2043      2046      2043      2046      2049      2050
      2043      2046      2049      2051      2043      2046      2049      2052
      2044      2043      2046      2047      2044      2043      2046      2048
      2044      2043      2046      2049      2045      2043      2046      2047
      2045      2043      2046      2048      2045      2043      2046      2049
      2046      2049      2052      2053      2046      2049      2052      2054
      2046      2049      2052      2055      2047      2046      2049      2050
      2047      2046      2049      2051      2047      2046      2049      2052
      2048      2046      2049      2050      2048      2046      2049      2051
      2048      2046      2049      2052      2049      2052      2055      2056
      2049      2052      2055      2057      2049      2052      2055      2058
      2050      2049      2052      2053      2050      2049      2052      2054
      2050      2049      2052      2055      2051      2049      2052      2053
      2051      2049      2052      2054      2051      2049      2052      2055
      2052      2055      2058      2059      2052      2055      2058      2060
      2052      2055      2058      2061      2053      2052      2055      2056
      2053      2052      2055      2057      2053      2052      2055      2058
      2054      2052      2055      2056      2054      2052      2055      2057
      2054      2052      2055      2058      2055      2058      2061      2062
      2055      2058      2061      2063      2055      2058      2061      2064
      2056      2055      2058      2059      2056      2055      2058      2060
      2056      2055      2058      2061      2057      2055      2058      2059
      2057      2055      2058      2060      2057      2055      2058      2061
      2058      2061      2064      2065      2058      2061      2064      2066
      2058      2061      2064      2067      2059      2058      2061      2062
      2059      2058      2061      2063      2059      2058      2061      2064
      2060      2058      2061      2062      2060      2058      2061      2063
      2060      2058      2061      2064      2061      2064      2067      2068
      2061      2064      2067      2069      2061      2064      2067      2070
      2062      2061      2064      2065      2062      2061      2064      2066
      2062      2061      2064      2067      2063      2061      2064      2065
      2063      2061      2064      2066      2063      2061      2064      2067
      2064      2067      2070      2071      2064      2067      2070      2072
      2064      2067      2070      2073      2065      2064      2067      2068
      2065      2064      2067      2069      2065      2064      2067      2070
      2066      2064      2067      2068      2066      2064      2067      2069
      2066      2064      2067      2070      2067      2070      2073      2074
      2067      2070      2073      2075      2067      2070      2073      2076
      2068      2067      2070      2071      2068      2067      2070      2072
      2068      2067      2070      2073      2069      2067      2070      2071
      2069      2067      2070      2072      2069      2067      2070      2073
      2070      2073      2076      2077      2070      2073      2076      2078
      2070      2073      2076      2079      2071      2070      2073      2074
      2071      2070      2073      2075      2071      2070      2073      2076
      2072      2070      2073      2074      2072      2070      2073      2075
      2072      2070      2073      2076      2074      2073      2076      2077
      2074      2073      2076      2078      2074      2073      2076      2079
      2075      2073      2076      2077      2075      2073      2076      2078
      2075      2073      2076      2079      2080      2081      2096      2097
      2080      2081      2096      2098      2080      2081      2096      2102
      2081      2080      2084      2085      2081      2080      2084      2086
      2081      2080      2084      2087      2081      2080      2088      2089
      2081      2080      2088      2090      2081      2080      2088      2091
      2081      2080      2092      2093      2081      2080      2092      2094
      2081      2080      2092      2095      2081      2096      2102      2099
      2082      2081      2080      2084      2082      2081      2080      2088
      2082      2081      2080      2092      2082      2081      2096      2097
      2082      2081      2096      2098      2082      2081      2096      2102
      2083      2081      2080      2084      2083      2081      2080      2088
      2083      2081      2080      2092      2083      2081      2096      2097
      2083      2081      2096      2098      2083      2081      2096      2102
      2084      2080      2081      2096      2084      2080      2088      2089
      2084      2080      2088      2090      2084      2080      2088      2091
      2084      2080      2092      2093      2084      2080      2092      2094
      2084      2080      2092      2095      2085      2084      2080      2088
      2085      2084      2080      2092      2086      2084      2080      2088
      2086      2084      2080      2092      2087      2084      2080      2088
      2087      2084      2080      2092      2088      2080      2081      2096
      2088      2080      2092      2093      2088      2080      2092      2094
      2088      2080      2092      2095      2089      2088      2080      2092
      2090      2088      2080      2092      2091      2088      2080      2092
      2092      2080      2081      2096      2096      2102      2099      2100
      2096      2102      2099      2101      2096      2102      2099      2103
      2097      2096      2102      2099      2098      2096      2102      2099
      2099      2103      2104      2105      2099      2103      2104      2106
      2099      2103      2104      2107      2100      2099      2103      2104
      2101      2099      2103      2104      2102      2099      2103      2104
      2103      2104      2107      2108      2103      2104      2107      2109
      2103      2104      2107      2115      2104      2107      2109      2110
      2104      2107      2115      2116      2104      2107      2115      2117
      2104      2107      2115      2118      2105      2104      2107      2108
      2105      2104      2107      2109      2105      2104      2107      2115
      2106      2104      2107      2108      2106      2104      2107      2109
      2106      2104      2107      2115      2107      2109      2110      2111
      2107      2109      2110      2112      2107      2115      2118      2119
      2108      2107      2109      2110      2108      2107      2115      2116
      2108      2107      2115      2117      2108      2107      2115      2118
      2109      2107      2115      2116      2109      2107      2115      2117
      2109      2107      2115      2118      2109      2110      2112      2113
      2109      2110      2112      2114      2109      2110      2112      2124
      2110      2109      2107      2115      2110      2112      2124      2125
      2110      2112      2124      2126      2110      2112      2124      2127
      2111      2110      2112      2113      2111      2110      2112      2114
      2111      2110      2112      2124      2112      2124      2127      2128
      2112      2124      2127      2129      2112      2124      2127      2130
      2113      2112      2124      2125      2113      2112      2124      2126
      2113      2112      2124      2127      2114      2112      2124      2125
      2114      2112      2124      2126      2114      2112      2124      2127
      2115      2118      2119      2120      2115      2118      2119      2121
      2116      2115      2118      2119      2117      2115      2118      2119
      2118      2119      2121      2122      2118      2119      2121      2123
      2118      2119      2121      2171      2119      2121      2171      2172
      2119      2121      2171      2173      2119      2121      2171      2174
      2120      2119      2121      2122      2120      2119      2121      2123
      2120      2119      2121      2171      2121      2171      2174      2175
      2121      2171      2174      2176      2121      2171      2174      2177
      2122      2121      2171      2172      2122      2121      2171      2173
      2122      2121      2171      2174      2123      2121      2171      2172
      2123      2121      2171      2173      2123      2121      2171      2174
      2124      2127      2130      2131      2124      2127      2130      2132
      2124      2127      2130      2133      2125      2124      2127      2128
      2125      2124      2127      2129      2125      2124      2127      2130
      2126      2124      2127      2128      2126      2124      2127      2129
      2126      2124      2127      2130      2127      2130      2133      2134
      2127      2130      2133      2135      2127      2130      2133      2136
      2128      2127      2130      2131      2128      2127      2130      2132
      2128      2127      2130      2133      2129      2127      2130      2131
      2129      2127      2130      2132      2129      2127      2130      2133
      2130      2133      2136      2137      2130      2133      2136      2138
      2130      2133      2136      2139      2131      2130      2133      2134
      2131      2130      2133      2135      2131      2130      2133      2136
      2132      2130      2133      2134      2132      2130      2133      2135
      2132      2130      2133      2136      2133      2136      2139      2140
      2133      2136      2139      2141      2133      2136      2139      2142
      2134      2133      2136      2137      2134      2133      2136      2138
      2134      2133      2136      2139      2135      2133      2136      2137
      2135      2133      2136      2138      2135      2133      2136      2139
      2136      2139      2142      2143      2136      2139      2142      2144
      2137      2136      2139      2140      2137      2136      2139      2141
      2137      2136      2139      2142      2138      2136      2139      2140
      2138      2136      2139      2141      2138      2136      2139      2142
      2139      2142      2144      2145      2139      2142      2144      2146
      2140      2139      2142      2143      2140      2139      2142      2144
      2141      2139      2142      2143      2141      2139      2142      2144
      2142      2144      2146      2147      2142      2144      2146      2148
      2142      2144      2146      2149      2143      2142      2144      2145
      2143      2142      2144      2146      2144      2146      2149      2150
      2144      2146      2149      2151      2144      2146      2149      2152
      2145      2144      2146      2147      2145      2144      2146      2148
      2145      2144      2146      2149      2146      2149      2152      2153
      2146      2149      2152      2154      2146      2149      2152      2155
      2147      2146      2149      2150      2147      2146      2149      2151
      2147      2146      2149      2152      2148      2146      2149      2150
      2148      2146      2149      2151      2148      2146      2149      2152
      2149      2152      2155      2156      2149      2152      2155      2157
      2149      2152      2155      2158      2150      2149      2152      2153
      2150      2149      2152      2154      2150      2149      2152      2155
      2151      2149      2152      2153      2151      2149      2152      2154
      2151      2149      2152      2155      2152      2155      2158      2159
      2152      2155      2158      2160      2152      2155      2158      2161
      2153      2152      2155      2156      2153      2152      2155      2157
      2153      2152      2155      2158      2154      2152      2155      2156
      2154      2152      2155      2157      2154      2152      2155      2158
      2155      2158      2161      2162      2155      2158      2161      2163
      2155      2158      2161      2164      2156      2155      2158      2159
      2156      2155      2158      2160      2156      2155      2158      2161
      2157      2155      2158      2159      2157      2155      2158      2160
      2157      2155      2158      2161      2158      2161      2164      2165
      2158      2161      2164      2166      2158      2161      2164      2167
      2159      2158      2161      2162      2159      2158      2161      2163
      2159      2158      2161      2164      2160      2158      2161      2162
      2160      2158      2161      2163      2160      2158      2161      2164
      2161      2164      2167      2168      2161      2164      2167      2169
      2161      2164      2167      2170      2162      2161      2164      2165
      2162      2161      2164      2166      2162      2161      2164      2167
      2163      2161      2164      2165      2163      2161      2164      2166
      2163      2161      2164      2167      2165      2164      2167      2168
      2165      2164      2167      2169      2165      2164      2167      2170
      2166      2164      2167      2168      2166      2164      2167      2169
      2166      2164      2167      2170      2171      2174      2177      2178
      2171      2174      2177      2179      2171      2174      2177      2180
      2172      2171      2174      2175      2172      2171      2174      2176
      2172      2171      2174      2177      2173      2171      2174      2175
      2173      2171      2174      2176      2173      2171      2174      2177
      2174      2177      2180      2181      2174      2177      2180      2182
      2174      2177      2180      2183      2175      2174      2177      2178
      2175      2174      2177      2179      2175      2174      2177      2180
      2176      2174      2177      2178      2176      2174      2177      2179
      2176      2174      2177      2180      2177      2180      2183      2184
      2177      2180      2183      2185      2177      2180      2183      2186
      2178      2177      2180      2181      2178      2177      2180      2182
      2178      2177      2180      2183      2179      2177      2180      2181
      2179      2177      2180      2182      2179      2177      2180      2183
      2180      2183      2186      2187      2180      2183      2186      2188
      2180      2183      2186      2189      2181      2180      2183      2184
      2181      2180      2183      2185      2181      2180      2183      2186
      2182      2180      2183      2184      2182      2180      2183      2185
      2182      2180      2183      2186      2183      2186      2189      2190
      2183      2186      2189      2191      2183      2186      2189      2192
      2184      2183      2186      2187      2184      2183      2186      2188
      2184      2183      2186      2189      2185      2183      2186      2187
      2185      2183      2186      2188      2185      2183      2186      2189
      2186      2189      2192      2193      2186      2189      2192      2194
      2186      2189      2192      2195      2187      2186      2189      2190
      2187      2186      2189      2191      2187      2186      2189      2192
      2188      2186      2189      2190      2188      2186      2189      2191
      2188      2186      2189      2192      2189      2192      2195      2196
      2189      2192      2195      2197      2189      2192      2195      2198
      2190      2189      2192      2193      2190      2189      2192      2194
      2190      2189      2192      2195      2191      2189      2192      2193
      2191      2189      2192      2194      2191      2189      2192      2195
      2192      2195      2198      2199      2192      2195      2198      2200
      2192      2195      2198      2201      2193      2192      2195      2196
      2193      2192      2195      2197      2193      2192      2195      2198
      2194      2192      2195      2196      2194      2192      2195      2197
      2194      2192      2195      2198      2195      2198      2201      2202
      2195      2198      2201      2203      2195      2198      2201      2204
      2196      2195      2198      2199      2196      2195      2198      2200
      2196      2195      2198      2201      2197      2195      2198      2199
      2197      2195      2198      2200      2197      2195      2198      2201
      2198      2201      2204      2205      2198      2201      2204      2206
      2198      2201      2204      2207      2199      2198      2201      2202
      2199      2198      2201      2203      2199      2198      2201      2204
      2200      2198      2201      2202      2200      2198      2201      2203
      2200      2198      2201      2204      2201      2204      2207      2208
      2201      2204      2207      2209      2201      2204      2207      2210
      2202      2201      2204      2205      2202      2201      2204      2206
      2202      2201      2204      2207      2203      2201      2204      2205
      2203      2201      2204      2206      2203      2201      2204      2207
      2204      2207      2210      2211      2204      2207      2210      2212
      2204      2207      2210      2213      2205      2204      2207      2208
      2205      2204      2207      2209      2205      2204      2207      2210
      2206      2204      2207      2208      2206      2204      2207      2209
      2206      2204      2207      2210      2208      2207      2210      2211
      2208      2207      2210      2212      2208      2207      2210      2213
      2209      2207      2210      2211      2209      2207      2210      2212
      2209      2207      2210      2213      2214      2215      2230      2231
      2214      2215      2230      2232      2214      2215      2230      2236
      2215      2214      2218      2219      2215      2214      2218      2220
      2215      2214      2218      2221      2215      2214      2222      2223
      2215      2214      2222      2224      2215      2214      2222      2225
      2215      2214      2226      2227      2215      2214      2226      2228
      2215      2214      2226      2229      2215      2230      2236      2233
      2216      2215      2214      2218      2216      2215      2214      2222
      2216      2215      2214      2226      2216      2215      2230      2231
      2216      2215      2230      2232      2216      2215      2230      2236
      2217      2215      2214      2218      2217      2215      2214      2222
      2217      2215      2214      2226      2217      2215      2230      2231
      2217      2215      2230      2232      2217      2215      2230      2236
      2218      2214      2215      2230      2218      2214      2222      2223
      2218      2214      2222      2224      2218      2214      2222      2225
      2218      2214      2226      2227      2218      2214      2226      2228
      2218      2214      2226      2229      2219      2218      2214      2222
      2219      2218      2214      2226      2220      2218      2214      2222
      2220      2218      2214      2226      2221      2218      2214      2222
      2221      2218      2214      2226      2222      2214      2215      2230
      2222      2214      2226      2227      2222      2214      2226      2228
      2222      2214      2226      2229      2223      2222      2214      2226
      2224      2222      2214      2226      2225      2222      2214      2226
      2226      2214      2215      2230      2230      2236      2233      2234
      2230      2236      2233      2235      2230      2236      2233      2237
      2231      2230      2236      2233      2232      2230      2236      2233
      2233      2237      2238      2239      2233      2237      2238      2240
      2233      2237      2238      2241      2234      2233      2237      2238
      2235      2233      2237      2238      2236      2233      2237      2238
      2237      2238      2241      2242      2237      2238      2241      2243
      2237      2238      2241      2249      2238      2241      2243      2244
      2238      2241      2249      2250      2238      2241      2249      2251
      2238      2241      2249      2252      2239      2238      2241      2242
      2239      2238      2241      2243      2239      2238      2241      2249
      2240      2238      2241      2242      2240      2238      2241      2243
      2240      2238      2241      2249      2241      2243      2244      2245
      2241      2243      2244      2246      2241      2249      2252      2253
      2242      2241      2243      2244      2242      2241      2249      2250
      2242      2241      2249      2251      2242      2241      2249      2252
      2243      2241      2249      2250      2243      2241      2249      2251
      2243      2241      2249      2252      2243      2244      2246      2247
      2243      2244      2246      2248      2243      2244      2246      2258
      2244      2243      2241      2249      2244      2246      2258      2259
      2244      2246      2258      2260      2244      2246      2258      2261
      2245      2244      2246      2247      2245      2244      2246      2248
      2245      2244      2246      2258      2246      2258      2261      2262
      2246      2258      2261      2263      2246      2258      2261      2264
      2247      2246      2258      2259      2247      2246      2258      2260
      2247      2246      2258      2261      2248      2246      2258      2259
      2248      2246      2258      2260      2248      2246      2258      2261
      2249      2252      2253      2254      2249      2252      2253      2255
      2250      2249      2252      2253      2251      2249      2252      2253
      2252      2253      2255      2256      2252      2253      2255      2257
      2252      2253      2255      2305      2253      2255      2305      2306
      2253      2255      2305      2307      2253      2255      2305      2308
      2254      2253      2255      2256      2254      2253      2255      2257
      2254      2253      2255      2305      2255      2305      2308      2309
      2255      2305      2308      2310      2255      2305      2308      2311
      2256      2255      2305      2306      2256      2255      2305      2307
      2256      2255      2305      2308      2257      2255      2305      2306
      2257      2255      2305      2307      2257      2255      2305      2308
      2258      2261      2264      2265      2258      2261      2264      2266
      2258      2261      2264      2267      2259      2258      2261      2262
      2259      2258      2261      2263      2259      2258      2261      2264
      2260      2258      2261      2262      2260      2258      2261      2263
      2260      2258      2261      2264      2261      2264      2267      2268
      2261      2264      2267      2269      2261      2264      2267      2270
      2262      2261      2264      2265      2262      2261      2264      2266
      2262      2261      2264      2267      2263      2261      2264      2265
      2263      2261      2264      2266      2263      2261      2264      2267
      2264      2267      2270      2271      2264      2267      2270      2272
      2264      2267      2270      2273      2265      2264      2267      2268
      2265      2264      2267      2269      2265      2264      2267      2270
      2266      2264      2267      2268      2266      2264      2267      2269
      2266      2264      2267      2270      2267      2270      2273      2274
      2267      2270      2273      2275      2267      2270      2273      2276
      2268      2267      2270      2271      2268      2267      2270      2272
      2268      2267      2270      2273      2269      2267      2270      2271
      2269      2267      2270      2272      2269      2267      2270      2273
      2270      2273      2276      2277      2270      2273      2276      2278
      2271      2270      2273      2274      2271      2270      2273      2275
      2271      2270      2273      2276      2272      2270      2273      2274
      2272      2270      2273      2275      2272      2270      2273      2276
      2273      2276      2278      2279      2273      2276      2278      2280
      2274      2273      2276      2277      2274      2273      2276      2278
      2275      2273      2276      2277      2275      2273      2276      2278
      2276      2278      2280      2281      2276      2278      2280      2282
      2276      2278      2280      2283      2277      2276      2278      2279
      2277      2276      2278      2280      2278      2280      2283      2284
      2278      2280      2283      2285      2278      2280      2283      2286
      2279      2278      2280      2281      2279      2278      2280      2282
      2279      2278      2280      2283      2280      2283      2286      2287
      2280      2283      2286      2288      2280      2283      2286      2289
      2281      2280      2283      2284      2281      2280      2283      2285
      2281      2280      2283      2286      2282      2280      2283      2284
      2282      2280      2283      2285      2282      2280      2283      2286
      2283      2286      2289      2290      2283      2286      2289      2291
      2283      2286      2289      2292      2284      2283      2286      2287
      2284      2283      2286      2288      2284      2283      2286      2289
      2285      2283      2286      2287      2285      2283      2286      2288
      2285      2283      2286      2289      2286      2289      2292      2293
      2286      2289      2292      2294      2286      2289      2292      2295
      2287      2286      2289      2290      2287      2286      2289      2291
      2287      2286      2289      2292      2288      2286      2289      2290
      2288      2286      2289      2291      2288      2286      2289      2292
      2289      2292      2295      2296      2289      2292      2295      2297
      2289      2292      2295      2298      2290      2289      2292      2293
      2290      2289      2292      2294      2290      2289      2292      2295
      2291      2289      2292      2293      2291      2289      2292      2294
      2291      2289      2292      2295      2292      2295      2298      2299
      2292      2295      2298      2300      2292      2295      2298      2301
      2293      2292      2295      2296      2293      2292      2295      2297
      2293      2292      2295      2298      2294      2292      2295      2296
      2294      2292      2295      2297      2294      2292      2295      2298
      2295      2298      2301      2302      2295      2298      2301      2303
      2295      2298      2301      2304      2296      2295      2298      2299
      2296      2295      2298      2300      2296      2295      2298      2301
      2297      2295      2298      2299      2297      2295      2298      2300
      2297      2295      2298      2301      2299      2298      2301      2302
      2299      2298      2301      2303      2299      2298      2301      2304
      2300      2298      2301      2302      2300      2298      2301      2303
      2300      2298      2301      2304      2305      2308      2311      2312
      2305      2308      2311      2313      2305      2308      2311      2314
      2306      2305      2308      2309      2306      2305      2308      2310
      2306      2305      2308      2311      2307      2305      2308      2309
      2307      2305      2308      2310      2307      2305      2308      2311
      2308      2311      2314      2315      2308      2311      2314      2316
      2308      2311      2314      2317      2309      2308      2311      2312
      2309      2308      2311      2313      2309      2308      2311      2314
      2310      2308      2311      2312      2310      2308      2311      2313
      2310      2308      2311      2314      2311      2314      2317      2318
      2311      2314      2317      2319      2311      2314      2317      2320
      2312      2311      2314      2315      2312      2311      2314      2316
      2312      2311      2314      2317      2313      2311      2314      2315
      2313      2311      2314      2316      2313      2311      2314      2317
      2314      2317      2320      2321      2314      2317      2320      2322
      2314      2317      2320      2323      2315      2314      2317      2318
      2315      2314      2317      2319      2315      2314      2317      2320
      2316      2314      2317      2318      2316      2314      2317      2319
      2316      2314      2317      2320      2317      2320      2323      2324
      2317      2320      2323      2325      2317      2320      2323      2326
      2318      2317      2320      2321      2318      2317      2320      2322
      2318      2317      2320      2323      2319      2317      2320      2321
      2319      2317      2320      2322      2319      2317      2320      2323
      2320      2323      2326      2327      2320      2323      2326      2328
      2320      2323      2326      2329      2321      2320      2323      2324
      2321      2320      2323      2325      2321      2320      2323      2326
      2322      2320      2323      2324      2322      2320      2323      2325
      2322      2320      2323      2326      2323      2326      2329      2330
      2323      2326      2329      2331      2323      2326      2329      2332
      2324      2323      2326      2327      2324      2323      2326      2328
      2324      2323      2326      2329      2325      2323      2326      2327
      2325      2323      2326      2328      2325      2323      2326      2329
      2326      2329      2332      2333      2326      2329      2332      2334
      2326      2329      2332      2335      2327      2326      2329      2330
      2327      2326      2329      2331      2327      2326      2329      2332
      2328      2326      2329      2330      2328      2326      2329      2331
      2328      2326      2329      2332      2329      2332      2335      2336
      2329      2332      2335      2337      2329      2332      2335      2338
      2330      2329      2332      2333      2330      2329      2332      2334
      2330      2329      2332      2335      2331      2329      2332      2333
      2331      2329      2332      2334      2331      2329      2332      2335
      2332      2335      2338      2339      2332      2335      2338      2340
      2332      2335      2338      2341      2333      2332      2335      2336
      2333      2332      2335      2337      2333      2332      2335      2338
      2334      2332      2335      2336      2334      2332      2335      2337
      2334      2332      2335      2338      2335      2338      2341      2342
      2335      2338      2341      2343      2335      2338      2341      2344
      2336      2335      2338      2339      2336      2335      2338      2340
      2336      2335      2338      2341      2337      2335      2338      2339
      2337      2335      2338      2340      2337      2335      2338      2341
      2338      2341      2344      2345      2338      2341      2344      2346
      2338      2341      2344      2347      2339      2338      2341      2342
      2339      2338      2341      2343      2339      2338      2341      2344
      2340      2338      2341      2342      2340      2338      2341      2343
      2340      2338      2341      2344      2342      2341      2344      2345
      2342      2341      2344      2346      2342      2341      2344      2347
      2343      2341      2344      2345      2343      2341      2344      2346
      2343      2341      2344      2347      2348      2349      2364      2365
      2348      2349      2364      2366      2348      2349      2364      2370
      2349      2348      2352      2353      2349      2348      2352      2354
      2349      2348      2352      2355      2349      2348      2356      2357
      2349      2348      2356      2358      2349      2348      2356      2359
      2349      2348      2360      2361      2349      2348      2360      2362
      2349      2348      2360      2363      2349      2364      2370      2367
      2350      2349      2348      2352      2350      2349      2348      2356
      2350      2349      2348      2360      2350      2349      2364      2365
      2350      2349      2364      2366      2350      2349      2364      2370
      2351      2349      2348      2352      2351      2349      2348      2356
      2351      2349      2348      2360      2351      2349      2364      2365
      2351      2349      2364      2366      2351      2349      2364      2370
      2352      2348      2349      2364      2352      2348      2356      2357
      2352      2348      2356      2358      2352      2348      2356      2359
      2352      2348      2360      2361      2352      2348      2360      2362
      2352      2348      2360      2363      2353      2352      2348      2356
      2353      2352      2348      2360      2354      2352      2348      2356
      2354      2352      2348      2360      2355      2352      2348      2356
      2355      2352      2348      2360      2356      2348      2349      2364
      2356      2348      2360      2361      2356      2348      2360      2362
      2356      2348      2360      2363      2357      2356      2348      2360
      2358      2356      2348      2360      2359      2356      2348      2360
      2360      2348      2349      2364      2364      2370      2367      2368
      2364      2370      2367      2369      2364      2370      2367      2371
      2365      2364      2370      2367      2366      2364      2370      2367
      2367      2371      2372      2373      2367      2371      2372      2374
      2367      2371      2372      2375      2368      2367      2371      2372
      2369      2367      2371      2372      2370      2367      2371      2372
      2371      2372      2375      2376      2371      2372      2375      2377
      2371      2372      2375      2383      2372      2375      2377      2378
      2372      2375      2383      2384      2372      2375      2383      2385
      2372      2375      2383      2386      2373      2372      2375      2376
      2373      2372      2375      2377      2373      2372      2375      2383
      2374      2372      2375      2376      2374      2372      2375      2377
      2374      2372      2375      2383      2375      2377      2378      2379
      2375      2377      2378      2380      2375      2383      2386      2387
      2376      2375      2377      2378      2376      2375      2383      2384
      2376      2375      2383      2385      2376      2375      2383      2386
      2377      2375      2383      2384      2377      2375      2383      2385
      2377      2375      2383      2386      2377      2378      2380      2381
      2377      2378      2380      2382      2377      2378      2380      2392
      2378      2377      2375      2383      2378      2380      2392      2393
      2378      2380      2392      2394      2378      2380      2392      2395
      2379      2378      2380      2381      2379      2378      2380      2382
      2379      2378      2380      2392      2380      2392      2395      2396
      2380      2392      2395      2397      2380      2392      2395      2398
      2381      2380      2392      2393      2381      2380      2392      2394
      2381      2380      2392      2395      2382      2380      2392      2393
      2382      2380      2392      2394      2382      2380      2392      2395
      2383      2386      2387      2388      2383      2386      2387      2389
      2384      2383      2386      2387      2385      2383      2386      2387
      2386      2387      2389      2390      2386      2387      2389      2391
      2386      2387      2389      2439      2387      2389      2439      2440
      2387      2389      2439      2441      2387      2389      2439      2442
      2388      2387      2389      2390      2388      2387      2389      2391
      2388      2387      2389      2439      2389      2439      2442      2443
      2389      2439      2442      2444      2389      2439      2442      2445
      2390      2389      2439      2440      2390      2389      2439      2441
      2390      2389      2439      2442      2391      2389      2439      2440
      2391      2389      2439      2441      2391      2389      2439      2442
      2392      2395      2398      2399      2392      2395      2398      2400
      2392      2395      2398      2401      2393      2392      2395      2396
      2393      2392      2395      2397      2393      2392      2395      2398
      2394      2392      2395      2396      2394      2392      2395      2397
      2394      2392      2395      2398      2395      2398      2401      2402
      2395      2398      2401      2403      2395      2398      2401      2404
      2396      2395      2398      2399      2396      2395      2398      2400
      2396      2395      2398      2401      2397      2395      2398      2399
      2397      2395      2398      2400      2397      2395      2398      2401
      2398      2401      2404      2405      2398      2401      2404      2406
      2398      2401      2404      2407      2399      2398      2401      2402
      2399      2398      2401      2403      2399      2398      2401      2404
      2400      2398      2401      2402      2400      2398      2401      2403
      2400      2398      2401      2404      2401      2404      2407      2408
      2401      2404      2407      2409      2401      2404      2407      2410
      2402      2401      2404      2405      2402      2401      2404      2406
      2402      2401      2404      2407      2403      2401      2404      2405
      2403      2401      2404      2406      2403      2401      2404      2407
      2404      2407      2410      2411      2404      2407      2410      2412
      2405      2404      2407      2408      2405      2404      2407      2409
      2405      2404      2407      2410      2406      2404      2407      2408
      2406      2404      2407      2409      2406      2404      2407      2410
      2407      2410      2412      2413      2407      2410      2412      2414
      2408      2407      2410      2411      2408      2407      2410      2412
      2409      2407      2410      2411      2409      2407      2410      2412
      2410      2412      2414      2415      2410      2412      2414      2416
      2410      2412      2414      2417      2411      2410      2412      2413
      2411      2410      2412      2414      2412      2414      2417      2418
      2412      2414      2417      2419      2412      2414      2417      2420
      2413      2412      2414      2415      2413      2412      2414      2416
      2413      2412      2414      2417      2414      2417      2420      2421
      2414      2417      2420      2422      2414      2417      2420      2423
      2415      2414      2417      2418      2415      2414      2417      2419
      2415      2414      2417      2420      2416      2414      2417      2418
      2416      2414      2417      2419      2416      2414      2417      2420
      2417      2420      2423      2424      2417      2420      2423      2425
      2417      2420      2423      2426      2418      2417      2420      2421
      2418      2417      2420      2422      2418      2417      2420      2423
      2419      2417      2420      2421      2419      2417      2420      2422
      2419      2417      2420      2423      2420      2423      2426      2427
      2420      2423      2426      2428      2420      2423      2426      2429
      2421      2420      2423      2424      2421      2420      2423      2425
      2421      2420      2423      2426      2422      2420      2423      2424
      2422      2420      2423      2425      2422      2420      2423      2426
      2423      2426      2429      2430      2423      2426      2429      2431
      2423      2426      2429      2432      2424      2423      2426      2427
      2424      2423      2426      2428      2424      2423      2426      2429
      2425      2423      2426      2427      2425      2423      2426      2428
      2425      2423      2426      2429      2426      2429      2432      2433
      2426      2429      2432      2434      2426      2429      2432      2435
      2427      2426      2429      2430      2427      2426      2429      2431
      2427      2426      2429      2432      2428      2426      2429      2430
      2428      2426      2429      2431      2428      2426      2429      2432
      2429      2432      2435      2436      2429      2432      2435      2437
      2429      2432      2435      2438      2430      2429      2432      2433
      2430      2429      2432      2434      2430      2429      2432      2435
      2431      2429      2432      2433      2431      2429      2432      2434
      2431      2429      2432      2435      2433      2432      2435      2436
      2433      2432      2435      2437      2433      2432      2435      2438
      2434      2432      2435      2436      2434      2432      2435      2437
      2434      2432      2435      2438      2439      2442      2445      2446
      2439      2442      2445      2447      2439      2442      2445      2448
      2440      2439      2442      2443      2440      2439      2442      2444
      2440      2439      2442      2445      2441      2439      2442      2443
      2441      2439      2442      2444      2441      2439      2442      2445
      2442      2445      2448      2449      2442      2445      2448      2450
      2442      2445      2448      2451      2443      2442      2445      2446
      2443      2442      2445      2447      2443      2442      2445      2448
      2444      2442      2445      2446      2444      2442      2445      2447
      2444      2442      2445      2448      2445      2448      2451      2452
      2445      2448      2451      2453      2445      2448      2451      2454
      2446      2445      2448      2449      2446      2445      2448      2450
      2446      2445      2448      2451      2447      2445      2448      2449
      2447      2445      2448      2450      2447      2445      2448      2451
      2448      2451      2454      2455      2448      2451      2454      2456
      2448      2451      2454      2457      2449      2448      2451      2452
      2449      2448      2451      2453      2449      2448      2451      2454
      2450      2448      2451      2452      2450      2448      2451      2453
      2450      2448      2451      2454      2451      2454      2457      2458
      2451      2454      2457      2459      2451      2454      2457      2460
      2452      2451      2454      2455      2452      2451      2454      2456
      2452      2451      2454      2457      2453      2451      2454      2455
      2453      2451      2454      2456      2453      2451      2454      2457
      2454      2457      2460      2461      2454      2457      2460      2462
      2454      2457      2460      2463      2455      2454      2457      2458
      2455      2454      2457      2459      2455      2454      2457      2460
      2456      2454      2457      2458      2456      2454      2457      2459
      2456      2454      2457      2460      2457      2460      2463      2464
      2457      2460      2463      2465      2457      2460      2463      2466
      2458      2457      2460      2461      2458      2457      2460      2462
      2458      2457      2460      2463      2459      2457      2460      2461
      2459      2457      2460      2462      2459      2457      2460      2463
      2460      2463      2466      2467      2460      2463      2466      2468
      2460      2463      2466      2469      2461      2460      2463      2464
      2461      2460      2463      2465      2461      2460      2463      2466
      2462      2460      2463      2464      2462      2460      2463      2465
      2462      2460      2463      2466      2463      2466      2469      2470
      2463      2466      2469      2471      2463      2466      2469      2472
      2464      2463      2466      2467      2464      2463      2466      2468
      2464      2463      2466      2469      2465      2463      2466      2467
      2465      2463      2466      2468      2465      2463      2466      2469
      2466      2469      2472      2473      2466      2469      2472      2474
      2466      2469      2472      2475      2467      2466      2469      2470
      2467      2466      2469      2471      2467      2466      2469      2472
      2468      2466      2469      2470      2468      2466      2469      2471
      2468      2466      2469      2472      2469      2472      2475      2476
      2469      2472      2475      2477      2469      2472      2475      2478
      2470      2469      2472      2473      2470      2469      2472      2474
      2470      2469      2472      2475      2471      2469      2472      2473
      2471      2469      2472      2474      2471      2469      2472      2475
      2472      2475      2478      2479      2472      2475      2478      2480
      2472      2475      2478      2481      2473      2472      2475      2476
      2473      2472      2475      2477      2473      2472      2475      2478
      2474      2472      2475      2476      2474      2472      2475      2477
      2474      2472      2475      2478      2476      2475      2478      2479
      2476      2475      2478      2480      2476      2475      2478      2481
      2477      2475      2478      2479      2477      2475      2478      2480
      2477      2475      2478      2481      2482      2483      2498      2499
      2482      2483      2498      2500      2482      2483      2498      2504
      2483      2482      2486      2487      2483      2482      2486      2488
      2483      2482      2486      2489      2483      2482      2490      2491
      2483      2482      2490      2492      2483      2482      2490      2493
      2483      2482      2494      2495      2483      2482      2494      2496
      2483      2482      2494      2497      2483      2498      2504      2501
      2484      2483      2482      2486      2484      2483      2482      2490
      2484      2483      2482      2494      2484      2483      2498      2499
      2484      2483      2498      2500      2484      2483      2498      2504
      2485      2483      2482      2486      2485      2483      2482      2490
      2485      2483      2482      2494      2485      2483      2498      2499
      2485      2483      2498      2500      2485      2483      2498      2504
      2486      2482      2483      2498      2486      2482      2490      2491
      2486      2482      2490      2492      2486      2482      2490      2493
      2486      2482      2494      2495      2486      2482      2494      2496
      2486      2482      2494      2497      2487      2486      2482      2490
      2487      2486      2482      2494      2488      2486      2482      2490
      2488      2486      2482      2494      2489      2486      2482      2490
      2489      2486      2482      2494      2490      2482      2483      2498
      2490      2482      2494      2495      2490      2482      2494      2496
      2490      2482      2494      2497      2491      2490      2482      2494
      2492      2490      2482      2494      2493      2490      2482      2494
      2494      2482      2483      2498      2498      2504      2501      2502
      2498      2504      2501      2503      2498      2504      2501      2505
      2499      2498      2504      2501      2500      2498      2504      2501
      2501      2505      2506      2507      2501      2505      2506      2508
      2501      2505      2506      2509      2502      2501      2505      2506
      2503      2501      2505      2506      2504      2501      2505      2506
      2505      2506      2509      2510      2505      2506      2509      2511
      2505      2506      2509      2517      2506      2509      2511      2512
      2506      2509      2517      2518      2506      2509      2517      2519
      2506      2509      2517      2520      2507      2506      2509      2510
      2507      2506      2509      2511      2507      2506      2509      2517
      2508      2506      2509      2510      2508      2506      2509      2511
      2508      2506      2509      2517      2509      2511      2512      2513
      2509      2511      2512      2514      2509      2517      2520      2521
      2510      2509      2511      2512      2510      2509      2517      2518
      2510      2509      2517      2519      2510      2509      2517      2520
      2511      2509      2517      2518      2511      2509      2517      2519
      2511      2509      2517      2520      2511      2512      2514      2515
      2511      2512      2514      2516      2511      2512      2514      2526
      2512      2511      2509      2517      2512      2514      2526      2527
      2512      2514      2526      2528      2512      2514      2526      2529
      2513      2512      2514      2515      2513      2512      2514      2516
      2513      2512      2514      2526      2514      2526      2529      2530
      2514      2526      2529      2531      2514      2526      2529      2532
      2515      2514      2526      2527      2515      2514      2526      2528
      2515      2514      2526      2529      2516      2514      2526      2527
      2516      2514      2526      2528      2516      2514      2526      2529
      2517      2520      2521      2522      2517      2520      2521      2523
      2518      2517      2520      2521      2519      2517      2520      2521
      2520      2521      2523      2524      2520      2521      2523      2525
      2520      2521      2523      2573      2521      2523      2573      2574
      2521      2523      2573      2575      2521      2523      2573      2576
      2522      2521      2523      2524      2522      2521      2523      2525
      2522      2521      2523      2573      2523      2573      2576      2577
      2523      2573      2576      2578      2523      2573      2576      2579
      2524      2523      2573      2574      2524      2523      2573      2575
      2524      2523      2573      2576      2525      2523      2573      2574
      2525      2523      2573      2575      2525      2523      2573      2576
      2526      2529      2532      2533      2526      2529      2532      2534
      2526      2529      2532      2535      2527      2526      2529      2530
      2527      2526      2529      2531      2527      2526      2529      2532
      2528      2526      2529      2530      2528      2526      2529      2531
      2528      2526      2529      2532      2529      2532      2535      2536
      2529      2532      2535      2537      2529      2532      2535      2538
      2530      2529      2532      2533      2530      2529      2532      2534
      2530      2529      2532      2535      2531      2529      2532      2533
      2531      2529      2532      2534      2531      2529      2532      2535
      2532      2535      2538      2539      2532      2535      2538      2540
      2532      2535      2538      2541      2533      2532      2535      2536
      2533      2532      2535      2537      2533      2532      2535      2538
      2534      2532      2535      2536      2534      2532      2535      2537
      2534      2532      2535      2538      2535      2538      2541      2542
      2535      2538      2541      2543      2535      2538      2541      2544
      2536      2535      2538      2539      2536      2535      2538      2540
      2536      2535      2538      2541      2537      2535      2538      2539
      2537      2535      2538      2540      2537      2535      2538      2541
      2538      2541      2544      2545      2538      2541      2544      2546
      2539      2538      2541      2542      2539      2538      2541      2543
      2539      2538      2541      2544      2540      2538      2541      2542
      2540      2538      2541      2543      2540      2538      2541      2544
      2541      2544      2546      2547      2541      2544      2546      2548
      2542      2541      2544      2545      2542      2541      2544      2546
      2543      2541      2544      2545      2543      2541      2544      2546
      2544      2546      2548      2549      2544      2546      2548      2550
      2544      2546      2548      2551      2545      2544      2546      2547
      2545      2544      2546      2548      2546      2548      2551      2552
      2546      2548      2551      2553      2546      2548      2551      2554
      2547      2546      2548      2549      2547      2546      2548      2550
      2547      2546      2548      2551      2548      2551      2554      2555
      2548      2551      2554      2556      2548      2551      2554      2557
      2549      2548      2551      2552      2549      2548      2551      2553
      2549      2548      2551      2554      2550      2548      2551      2552
      2550      2548      2551      2553      2550      2548      2551      2554
      2551      2554      2557      2558      2551      2554      2557      2559
      2551      2554      2557      2560      2552      2551      2554      2555
      2552      2551      2554      2556      2552      2551      2554      2557
      2553      2551      2554      2555      2553      2551      2554      2556
      2553      2551      2554      2557      2554      2557      2560      2561
      2554      2557      2560      2562      2554      2557      2560      2563
      2555      2554      2557      2558      2555      2554      2557      2559
      2555      2554      2557      2560      2556      2554      2557      2558
      2556      2554      2557      2559      2556      2554      2557      2560
      2557      2560      2563      2564      2557      2560      2563      2565
      2557      2560      2563      2566      2558      2557      2560      2561
      2558      2557      2560      2562      2558      2557      2560      2563
      2559      2557      2560      2561      2559      2557      2560      2562
      2559      2557      2560      2563      2560      2563      2566      2567
      2560      2563      2566      2568      2560      2563      2566      2569
      2561      2560      2563      2564      2561      2560      2563      2565
      2561      2560      2563      2566      2562      2560      2563      2564
      2562      2560      2563      2565      2562      2560      2563      2566
      2563      2566      2569      2570      2563      2566      2569      2571
      2563      2566      2569      2572      2564      2563      2566      2567
      2564      2563      2566      2568      2564      2563      2566      2569
      2565      2563      2566      2567      2565      2563      2566      2568
      2565      2563      2566      2569      2567      2566      2569      2570
      2567      2566      2569      2571      2567      2566      2569      2572
      2568      2566      2569      2570      2568      2566      2569      2571
      2568      2566      2569      2572      2573      2576      2579      2580
      2573      2576      2579      2581      2573      2576      2579      2582
      2574      2573      2576      2577      2574      2573      2576      2578
      2574      2573      2576      2579      2575      2573      2576      2577
      2575      2573      2576      2578      2575      2573      2576      2579
      2576      2579      2582      2583      2576      2579      2582      2584
      2576      2579      2582      2585      2577      2576      2579      2580
      2577      2576      2579      2581      2577      2576      2579      2582
      2578      2576      2579      2580      2578      2576      2579      2581
      2578      2576      2579      2582      2579      2582      2585      2586
      2579      2582      2585      2587      2579      2582      2585      2588
      2580      2579      2582      2583      2580      2579      2582      2584
      2580      2579      2582      2585      2581      2579      2582      2583
      2581      2579      2582      2584      2581      2579      2582      2585
      2582      2585      2588      2589      2582      2585      2588      2590
      2582      2585      2588      2591      2583      2582      2585      2586
      2583      2582      2585      2587      2583      2582      2585      2588
      2584      2582      2585      2586      2584      2582      2585      2587
      2584      2582      2585      2588      2585      2588      2591      2592
      2585      2588      2591      2593      2585      2588      2591      2594
      2586      2585      2588      2589      2586      2585      2588      2590
      2586      2585      2588      2591      2587      2585      2588      2589
      2587      2585      2588      2590      2587      2585      2588      2591
      2588      2591      2594      2595      2588      2591      2594      2596
      2588      2591      2594      2597      2589      2588      2591      2592
      2589      2588      2591      2593      2589      2588      2591      2594
      2590      2588      2591      2592      2590      2588      2591      2593
      2590      2588      2591      2594      2591      2594      2597      2598
      2591      2594      2597      2599      2591      2594      2597      2600
      2592      2591      2594      2595      2592      2591      2594      2596
      2592      2591      2594      2597      2593      2591      2594      2595
      2593      2591      2594      2596      2593      2591      2594      2597
      2594      2597      2600      2601      2594      2597      2600      2602
      2594      2597      2600      2603      2595      2594      2597      2598
      2595      2594      2597      2599      2595      2594      2597      2600
      2596      2594      2597      2598      2596      2594      2597      2599
      2596      2594      2597      2600      2597      2600      2603      2604
      2597      2600      2603      2605      2597      2600      2603      2606
      2598      2597      2600      2601      2598      2597      2600      2602
      2598      2597      2600      2603      2599      2597      2600      2601
      2599      2597      2600      2602      2599      2597      2600      2603
      2600      2603      2606      2607      2600      2603      2606      2608
      2600      2603      2606      2609      2601      2600      2603      2604
      2601      2600      2603      2605      2601      2600      2603      2606
      2602      2600      2603      2604      2602      2600      2603      2605
      2602      2600      2603      2606      2603      2606      2609      2610
      2603      2606      2609      2611      2603      2606      2609      2612
      2604      2603      2606      2607      2604      2603      2606      2608
      2604      2603      2606      2609      2605      2603      2606      2607
      2605      2603      2606      2608      2605      2603      2606      2609
      2606      2609      2612      2613      2606      2609      2612      2614
      2606      2609      2612      2615      2607      2606      2609      2610
      2607      2606      2609      2611      2607      2606      2609      2612
      2608      2606      2609      2610      2608      2606      2609      2611
      2608      2606      2609      2612      2610      2609      2612      2613
      2610      2609      2612      2614      2610      2609      2612      2615
      2611      2609      2612      2613      2611      2609      2612      2614
      2611      2609      2612      2615      2616      2620      2622      2623
      2616      2620      2622      2624      2616      2620      2625      2626
      2616      2620      2625      2627      2616      2620      2625      2631
      2617      2616      2620      2621      2617      2616      2620      2622
      2617      2616      2620      2625      2618      2616      2620      2621
      2618      2616      2620      2622      2618      2616      2620      2625
      2619      2616      2620      2621      2619      2616      2620      2622
      2619      2616      2620      2625      2620      2625      2631      2628
      2621      2620      2622      2623      2621      2620      2622      2624
      2621      2620      2625      2626      2621      2620      2625      2627
      2621      2620      2625      2631      2622      2620      2625      2626
      2622      2620      2625      2627      2622      2620      2625      2631
      2623      2622      2620      2625      2624      2622      2620      2625
      2625      2631      2628      2629      2625      2631      2628      2630
      2625      2631      2628      2632      2626      2625      2631      2628
      2627      2625      2631      2628      2628      2632      2633      2634
      2628      2632      2633      2635      2628      2632      2633      2636
      2629      2628      2632      2633      2630      2628      2632      2633
      2631      2628      2632      2633      2632      2633      2636      2637
      2632      2633      2636      2638      2632      2633      2636      2644
      2633      2636      2638      2639      2633      2636      2644      2645
      2633      2636      2644      2646      2633      2636      2644      2647
      2634      2633      2636      2637      2634      2633      2636      2638
      2634      2633      2636      2644      2635      2633      2636      2637
      2635      2633      2636      2638      2635      2633      2636      2644
      2636      2638      2639      2640      2636      2638      2639      2641
      2636      2644      2647      2648      2637      2636      2638      2639
      2637      2636      2644      2645      2637      2636      2644      2646
      2637      2636      2644      2647      2638      2636      2644      2645
      2638      2636      2644      2646      2638      2636      2644      2647
      2638      2639      2641      2642      2638      2639      2641      2643
      2638      2639      2641      2653      2639      2638      2636      2644
      2639      2641      2653      2654      2639      2641      2653      2655
      2639      2641      2653      2656      2640      2639      2641      2642
      2640      2639      2641      2643      2640      2639      2641      2653
      2641      2653      2656      2657      2641      2653      2656      2658
      2641      2653      2656      2659      2642      2641      2653      2654
      2642      2641      2653      2655      2642      2641      2653      2656
      2643      2641      2653      2654      2643      2641      2653      2655
      2643      2641      2653      2656      2644      2647      2648      2649
      2644      2647      2648      2650      2645      2644      2647      2648
      2646      2644      2647      2648      2647      2648      2650      2651
      2647      2648      2650      2652      2647      2648      2650      2700
      2648      2650      2700      2701      2648      2650      2700      2702
      2648      2650      2700      2703      2649      2648      2650      2651
      2649      2648      2650      2652      2649      2648      2650      2700
      2650      2700      2703      2704      2650      2700      2703      2705
      2650      2700      2703      2706      2651      2650      2700      2701
      2651      2650      2700      2702      2651      2650      2700      2703
      2652      2650      2700      2701      2652      2650      2700      2702
      2652      2650      2700      2703      2653      2656      2659      2660
      2653      2656      2659      2661      2653      2656      2659      2662
      2654      2653      2656      2657      2654      2653      2656      2658
      2654      2653      2656      2659      2655      2653      2656      2657
      2655      2653      2656      2658      2655      2653      2656      2659
      2656      2659      2662      2663      2656      2659      2662      2664
      2656      2659      2662      2665      2657      2656      2659      2660
      2657      2656      2659      2661      2657      2656      2659      2662
      2658      2656      2659      2660      2658      2656      2659      2661
      2658      2656      2659      2662      2659      2662      2665      2666
      2659      2662      2665      2667      2659      2662      2665      2668
      2660      2659      2662      2663      2660      2659      2662      2664
      2660      2659      2662      2665      2661      2659      2662      2663
      2661      2659      2662      2664      2661      2659      2662      2665
      2662      2665      2668      2669      2662      2665      2668      2670
      2662      2665      2668      2671      2663      2662      2665      2666
      2663      2662      2665      2667      2663      2662      2665      2668
      2664      2662      2665      2666      2664      2662      2665      2667
      2664      2662      2665      2668      2665      2668      2671      2672
      2665      2668      2671      2673      2666      2665      2668      2669
      2666      2665      2668      2670      2666      2665      2668      2671
      2667      2665      2668      2669      2667      2665      2668      2670
      2667      2665      2668      2671      2668      2671      2673      2674
      2668      2671      2673      2675      2669      2668      2671      2672
      2669      2668      2671      2673      2670      2668      2671      2672
      2670      2668      2671      2673      2671      2673      2675      2676
      2671      2673      2675      2677      2671      2673      2675      2678
      2672      2671      2673      2674      2672      2671      2673      2675
      2673      2675      2678      2679      2673      2675      2678      2680
      2673      2675      2678      2681      2674      2673      2675      2676
      2674      2673      2675      2677      2674      2673      2675      2678
      2675      2678      2681      2682      2675      2678      2681      2683
      2675      2678      2681      2684      2676      2675      2678      2679
      2676      2675      2678      2680      2676      2675      2678      2681
      2677      2675      2678      2679      2677      2675      2678      2680
      2677      2675      2678      2681      2678      2681      2684      2685
      2678      2681      2684      2686      2678      2681      2684      2687
      2679      2678      2681      2682      2679      2678      2681      2683
      2679      2678      2681      2684      2680      2678      2681      2682
      2680      2678      2681      2683      2680      2678      2681      2684
      2681      2684      2687      2688      2681      2684      2687      2689
      2681      2684      2687      2690      2682      2681      2684      2685
      2682      2681      2684      2686      2682      2681      2684      2687
      2683      2681      2684      2685      2683      2681      2684      2686
      2683      2681      2684      2687      2684      2687      2690      2691
      2684      2687      2690      2692      2684      2687      2690      2693
      2685      2684      2687      2688      2685      2684      2687      2689
      2685      2684      2687      2690      2686      2684      2687      2688
      2686      2684      2687      2689      2686      2684      2687      2690
      2687      2690      2693      2694      2687      2690      2693      2695
      2687      2690      2693      2696      2688      2687      2690      2691
      2688      2687      2690      2692      2688      2687      2690      2693
      2689      2687      2690      2691      2689      2687      2690      2692
      2689      2687      2690      2693      2690      2693      2696      2697
      2690      2693      2696      2698      2690      2693      2696      2699
      2691      2690      2693      2694      2691      2690      2693      2695
      2691      2690      2693      2696      2692      2690      2693      2694
      2692      2690      2693      2695      2692      2690      2693      2696
      2694      2693      2696      2697      2694      2693      2696      2698
      2694      2693      2696      2699      2695      2693      2696      2697
      2695      2693      2696      2698      2695      2693      2696      2699
      2700      2703      2706      2707      2700      2703      2706      2708
      2700      2703      2706      2709      2701      2700      2703      2704
      2701      2700      2703      2705      2701      2700      2703      2706
      2702      2700      2703      2704      2702      2700      2703      2705
      2702      2700      2703      2706      2703      2706      2709      2710
      2703      2706      2709      2711      2703      2706      2709      2712
      2704      2703      2706      2707      2704      2703      2706      2708
      2704      2703      2706      2709      2705      2703      2706      2707
      2705      2703      2706      2708      2705      2703      2706      2709
      2706      2709      2712      2713      2706      2709      2712      2714
      2706      2709      2712      2715      2707      2706      2709      2710
      2707      2706      2709      2711      2707      2706      2709      2712
      2708      2706      2709      2710      2708      2706      2709      2711
      2708      2706      2709      2712      2709      2712      2715      2716
      2709      2712      2715      2717      2709      2712      2715      2718
      2710      2709      2712      2713      2710      2709      2712      2714
      2710      2709      2712      2715      2711      2709      2712      2713
      2711      2709      2712      2714      2711      2709      2712      2715
      2712      2715      2718      2719      2712      2715      2718      2720
      2712      2715      2718      2721      2713      2712      2715      2716
      2713      2712      2715      2717      2713      2712      2715      2718
      2714      2712      2715      2716      2714      2712      2715      2717
      2714      2712      2715      2718      2715      2718      2721      2722
      2715      2718      2721      2723      2715      2718      2721      2724
      2716      2715      2718      2719      2716      2715      2718      2720
      2716      2715      2718      2721      2717      2715      2718      2719
      2717      2715      2718      2720      2717      2715      2718      2721
      2718      2721      2724      2725      2718      2721      2724      2726
      2718      2721      2724      2727      2719      2718      2721      2722
      2719      2718      2721      2723      2719      2718      2721      2724
      2720      2718      2721      2722      2720      2718      2721      2723
      2720      2718      2721      2724      2721      2724      2727      2728
      2721      2724      2727      2729      2721      2724      2727      2730
      2722      2721      2724      2725      2722      2721      2724      2726
      2722      2721      2724      2727      2723      2721      2724      2725
      2723      2721      2724      2726      2723      2721      2724      2727
      2724      2727      2730      2731      2724      2727      2730      2732
      2724      2727      2730      2733      2725      2724      2727      2728
      2725      2724      2727      2729      2725      2724      2727      2730
      2726      2724      2727      2728      2726      2724      2727      2729
      2726      2724      2727      2730      2727      2730      2733      2734
      2727      2730      2733      2735      2727      2730      2733      2736
      2728      2727      2730      2731      2728      2727      2730      2732
      2728      2727      2730      2733      2729      2727      2730      2731
      2729      2727      2730      2732      2729      2727      2730      2733
      2730      2733      2736      2737      2730      2733      2736      2738
      2730      2733      2736      2739      2731      2730      2733      2734
      2731      2730      2733      2735      2731      2730      2733      2736
      2732      2730      2733      2734      2732      2730      2733      2735
      2732      2730      2733      2736      2733      2736      2739      2740
      2733      2736      2739      2741      2733      2736      2739      2742
      2734      2733      2736      2737      2734      2733      2736      2738
      2734      2733      2736      2739      2735      2733      2736      2737
      2735      2733      2736      2738      2735      2733      2736      2739
      2737      2736      2739      2740      2737      2736      2739      2741
      2737      2736      2739      2742      2738      2736      2739      2740
      2738      2736      2739      2741      2738      2736      2739      2742
      2743      2747      2749      2750      2743      2747      2749      2751
      2743      2747      2752      2753      2743      2747      2752      2754
      2743      2747      2752      2758      2744      2743      2747      2748
      2744      2743      2747      2749      2744      2743      2747      2752
      2745      2743      2747      2748      2745      2743      2747      2749
      2745      2743      2747      2752      2746      2743      2747      2748
      2746      2743      2747      2749      2746      2743      2747      2752
      2747      2752      2758      2755      2748      2747      2749      2750
      2748      2747      2749      2751      2748      2747      2752      2753
      2748      2747      2752      2754      2748      2747      2752      2758
      2749      2747      2752      2753      2749      2747      2752      2754
      2749      2747      2752      2758      2750      2749      2747      2752
      2751      2749      2747      2752      2752      2758      2755      2756
      2752      2758      2755      2757      2752      2758      2755      2759
      2753      2752      2758      2755      2754      2752      2758      2755
      2755      2759      2760      2761      2755      2759      2760      2762
      2755      2759      2760      2763      2756      2755      2759      2760
      2757      2755      2759      2760      2758      2755      2759      2760
      2759      2760      2763      2764      2759      2760      2763      2765
      2759      2760      2763      2771      2760      2763      2765      2766
      2760      2763      2771      2772      2760      2763      2771      2773
      2760      2763      2771      2774      2761      2760      2763      2764
      2761      2760      2763      2765      2761      2760      2763      2771
      2762      2760      2763      2764      2762      2760      2763      2765
      2762      2760      2763      2771      2763      2765      2766      2767
      2763      2765      2766      2768      2763      2771      2774      2775
      2764      2763      2765      2766      2764      2763      2771      2772
      2764      2763      2771      2773      2764      2763      2771      2774
      2765      2763      2771      2772      2765      2763      2771      2773
      2765      2763      2771      2774      2765      2766      2768      2769
      2765      2766      2768      2770      2765      2766      2768      2780
      2766      2765      2763      2771      2766      2768      2780      2781
      2766      2768      2780      2782      2766      2768      2780      2783
      2767      2766      2768      2769      2767      2766      2768      2770
      2767      2766      2768      2780      2768      2780      2783      2784
      2768      2780      2783      2785      2768      2780      2783      2786
      2769      2768      2780      2781      2769      2768      2780      2782
      2769      2768      2780      2783      2770      2768      2780      2781
      2770      2768      2780      2782      2770      2768      2780      2783
      2771      2774      2775      2776      2771      2774      2775      2777
      2772      2771      2774      2775      2773      2771      2774      2775
      2774      2775      2777      2778      2774      2775      2777      2779
      2774      2775      2777      2827      2775      2777      2827      2828
      2775      2777      2827      2829      2775      2777      2827      2830
      2776      2775      2777      2778      2776      2775      2777      2779
      2776      2775      2777      2827      2777      2827      2830      2831
      2777      2827      2830      2832      2777      2827      2830      2833
      2778      2777      2827      2828      2778      2777      2827      2829
      2778      2777      2827      2830      2779      2777      2827      2828
      2779      2777      2827      2829      2779      2777      2827      2830
      2780      2783      2786      2787      2780      2783      2786      2788
      2780      2783      2786      2789      2781      2780      2783      2784
      2781      2780      2783      2785      2781      2780      2783      2786
      2782      2780      2783      2784      2782      2780      2783      2785
      2782      2780      2783      2786      2783      2786      2789      2790
      2783      2786      2789      2791      2783      2786      2789      2792
      2784      2783      2786      2787      2784      2783      2786      2788
      2784      2783      2786      2789      2785      2783      2786      2787
      2785      2783      2786      2788      2785      2783      2786      2789
      2786      2789      2792      2793      2786      2789      2792      2794
      2786      2789      2792      2795      2787      2786      2789      2790
      2787      2786      2789      2791      2787      2786      2789      2792
      2788      2786      2789      2790      2788      2786      2789      2791
      2788      2786      2789      2792      2789      2792      2795      2796
      2789      2792      2795      2797      2789      2792      2795      2798
      2790      2789      2792      2793      2790      2789      2792      2794
      2790      2789      2792      2795      2791      2789      2792      2793
      2791      2789      2792      2794      2791      2789      2792      2795
      2792      2795      2798      2799      2792      2795      2798      2800
      2793      2792      2795      2796      2793      2792      2795      2797
      2793      2792      2795      2798      2794      2792      2795      2796
      2794      2792      2795      2797      2794      2792      2795      2798
      2795      2798      2800      2801      2795      2798      2800      2802
      2796      2795      2798      2799      2796      2795      2798      2800
      2797      2795      2798      2799      2797      2795      2798      2800
      2798      2800      2802      2803      2798      2800      2802      2804
      2798      2800      2802      2805      2799      2798      2800      2801
      2799      2798      2800      2802      2800      2802      2805      2806
      2800      2802      2805      2807      2800      2802      2805      2808
      2801      2800      2802      2803      2801      2800      2802      2804
      2801      2800      2802      2805      2802      2805      2808      2809
      2802      2805      2808      2810      2802      2805      2808      2811
      2803      2802      2805      2806      2803      2802      2805      2807
      2803      2802      2805      2808      2804      2802      2805      2806
      2804      2802      2805      2807      2804      2802      2805      2808
      2805      2808      2811      2812      2805      2808      2811      2813
      2805      2808      2811      2814      2806      2805      2808      2809
      2806      2805      2808      2810      2806      2805      2808      2811
      2807      2805      2808      2809      2807      2805      2808      2810
      2807      2805      2808      2811      2808      2811      2814      2815
      2808      2811      2814      2816      2808      2811      2814      2817
      2809      2808      2811      2812      2809      2808      2811      2813
      2809      2808      2811      2814      2810      2808      2811      2812
      2810      2808      2811      2813      2810      2808      2811      2814
      2811      2814      2817      2818      2811      2814      2817      2819
      2811      2814      2817      2820      2812      2811      2814      2815
      2812      2811      2814      2816      2812      2811      2814      2817
      2813      2811      2814      2815      2813      2811      2814      2816
      2813      2811      2814      2817      2814      2817      2820      2821
      2814      2817      2820      2822      2814      2817      2820      2823
      2815      2814      2817      2818      2815      2814      2817      2819
      2815      2814      2817      2820      2816      2814      2817      2818
      2816      2814      2817      2819      2816      2814      2817      2820
      2817      2820      2823      2824      2817      2820      2823      2825
      2817      2820      2823      2826      2818      2817      2820      2821
      2818      2817      2820      2822      2818      2817      2820      2823
      2819      2817      2820      2821      2819      2817      2820      2822
      2819      2817      2820      2823      2821      2820      2823      2824
      2821      2820      2823      2825      2821      2820      2823      2826
      2822      2820      2823      2824      2822      2820      2823      2825
      2822      2820      2823      2826      2827      2830      2833      2834
      2827      2830      2833      2835      2827      2830      2833      2836
      2828      2827      2830      2831      2828      2827      2830      2832
      2828      2827      2830      2833      2829      2827      2830      2831
      2829      2827      2830      2832      2829      2827      2830      2833
      2830      2833      2836      2837      2830      2833      2836      2838
      2830      2833      2836      2839      2831      2830      2833      2834
      2831      2830      2833      2835      2831      2830      2833      2836
      2832      2830      2833      2834      2832      2830      2833      2835
      2832      2830      2833      2836      2833      2836      2839      2840
      2833      2836      2839      2841      2833      2836      2839      2842
      2834      2833      2836      2837      2834      2833      2836      2838
      2834      2833      2836      2839      2835      2833      2836      2837
      2835      2833      2836      2838      2835      2833      2836      2839
      2836      2839      2842      2843      2836      2839      2842      2844
      2836      2839      2842      2845      2837      2836      2839      2840
      2837      2836      2839      2841      2837      2836      2839      2842
      2838      2836      2839      2840      2838      2836      2839      2841
      2838      2836      2839      2842      2839      2842      2845      2846
      2839      2842      2845      2847      2839      2842      2845      2848
      2840      2839      2842      2843      2840      2839      2842      2844
      2840      2839      2842      2845      2841      2839      2842      2843
      2841      2839      2842      2844      2841      2839      2842      2845
      2842      2845      2848      2849      2842      2845      2848      2850
      2842      2845      2848      2851      2843      2842      2845      2846
      2843      2842      2845      2847      2843      2842      2845      2848
      2844      2842      2845      2846      2844      2842      2845      2847
      2844      2842      2845      2848      2845      2848      2851      2852
      2845      2848      2851      2853      2845      2848      2851      2854
      2846      2845      2848      2849      2846      2845      2848      2850
      2846      2845      2848      2851      2847      2845      2848      2849
      2847      2845      2848      2850      2847      2845      2848      2851
      2848      2851      2854      2855      2848      2851      2854      2856
      2848      2851      2854      2857      2849      2848      2851      2852
      2849      2848      2851      2853      2849      2848      2851      2854
      2850      2848      2851      2852      2850      2848      2851      2853
      2850      2848      2851      2854      2851      2854      2857      2858
      2851      2854      2857      2859      2851      2854      2857      2860
      2852      2851      2854      2855      2852      2851      2854      2856
      2852      2851      2854      2857      2853      2851      2854      2855
      2853      2851      2854      2856      2853      2851      2854      2857
      2854      2857      2860      2861      2854      2857      2860      2862
      2854      2857      2860      2863      2855      2854      2857      2858
      2855      2854      2857      2859      2855      2854      2857      2860
      2856      2854      2857      2858      2856      2854      2857      2859
      2856      2854      2857      2860      2857      2860      2863      2864
      2857      2860      2863      2865      2857      2860      2863      2866
      2858      2857      2860      2861      2858      2857      2860      2862
      2858      2857      2860      2863      2859      2857      2860      2861
      2859      2857      2860      2862      2859      2857      2860      2863
      2860      2863      2866      2867      2860      2863      2866      2868
      2860      2863      2866      2869      2861      2860      2863      2864
      2861      2860      2863      2865      2861      2860      2863      2866
      2862      2860      2863      2864      2862      2860      2863      2865
      2862      2860      2863      2866      2864      2863      2866      2867
      2864      2863      2866      2868      2864      2863      2866      2869
      2865      2863      2866      2867      2865      2863      2866      2868
      2865      2863      2866      2869      2870      2871      2886      2887
      2870      2871      2886      2888      2870      2871      2886      2892
      2871      2870      2874      2875      2871      2870      2874      2876
      2871      2870      2874      2877      2871      2870      2878      2879
      2871      2870      2878      2880      2871      2870      2878      2881
      2871      2870      2882      2883      2871      2870      2882      2884
      2871      2870      2882      2885      2871      2886      2892      2889
      2872      2871      2870      2874      2872      2871      2870      2878
      2872      2871      2870      2882      2872      2871      2886      2887
      2872      2871      2886      2888      2872      2871      2886      2892
      2873      2871      2870      2874      2873      2871      2870      2878
      2873      2871      2870      2882      2873      2871      2886      2887
      2873      2871      2886      2888      2873      2871      2886      2892
      2874      2870      2871      2886      2874      2870      2878      2879
      2874      2870      2878      2880      2874      2870      2878      2881
      2874      2870      2882      2883      2874      2870      2882      2884
      2874      2870      2882      2885      2875      2874      2870      2878
      2875      2874      2870      2882      2876      2874      2870      2878
      2876      2874      2870      2882      2877      2874      2870      2878
      2877      2874      2870      2882      2878      2870      2871      2886
      2878      2870      2882      2883      2878      2870      2882      2884
      2878      2870      2882      2885      2879      2878      2870      2882
      2880      2878      2870      2882      2881      2878      2870      2882
      2882      2870      2871      2886      2886      2892      2889      2890
      2886      2892      2889      2891      2886      2892      2889      2893
      2887      2886      2892      2889      2888      2886      2892      2889
      2889      2893      2894      2895      2889      2893      2894      2896
      2889      2893      2894      2897      2890      2889      2893      2894
      2891      2889      2893      2894      2892      2889      2893      2894
      2893      2894      2897      2898      2893      2894      2897      2899
      2893      2894      2897      2905      2894      2897      2899      2900
      2894      2897      2905      2906      2894      2897      2905      2907
      2894      2897      2905      2908      2895      2894      2897      2898
      2895      2894      2897      2899      2895      2894      2897      2905
      2896      2894      2897      2898      2896      2894      2897      2899
      2896      2894      2897      2905      2897      2899      2900      2901
      2897      2899      2900      2902      2897      2905      2908      2909
      2898      2897      2899      2900      2898      2897      2905      2906
      2898      2897      2905      2907      2898      2897      2905      2908
      2899      2897      2905      2906      2899      2897      2905      2907
      2899      2897      2905      2908      2899      2900      2902      2903
      2899      2900      2902      2904      2899      2900      2902      2914
      2900      2899      2897      2905      2900      2902      2914      2915
      2900      2902      2914      2916      2900      2902      2914      2917
      2901      2900      2902      2903      2901      2900      2902      2904
      2901      2900      2902      2914      2902      2914      2917      2918
      2902      2914      2917      2919      2902      2914      2917      2920
      2903      2902      2914      2915      2903      2902      2914      2916
      2903      2902      2914      2917      2904      2902      2914      2915
      2904      2902      2914      2916      2904      2902      2914      2917
      2905      2908      2909      2910      2905      2908      2909      2911
      2906      2905      2908      2909      2907      2905      2908      2909
      2908      2909      2911      2912      2908      2909      2911      2913
      2908      2909      2911      2961      2909      2911      2961      2962
      2909      2911      2961      2963      2909      2911      2961      2964
      2910      2909      2911      2912      2910      2909      2911      2913
      2910      2909      2911      2961      2911      2961      2964      2965
      2911      2961      2964      2966      2911      2961      2964      2967
      2912      2911      2961      2962      2912      2911      2961      2963
      2912      2911      2961      2964      2913      2911      2961      2962
      2913      2911      2961      2963      2913      2911      2961      2964
      2914      2917      2920      2921      2914      2917      2920      2922
      2914      2917      2920      2923      2915      2914      2917      2918
      2915      2914      2917      2919      2915      2914      2917      2920
      2916      2914      2917      2918      2916      2914      2917      2919
      2916      2914      2917      2920      2917      2920      2923      2924
      2917      2920      2923      2925      2917      2920      2923      2926
      2918      2917      2920      2921      2918      2917      2920      2922
      2918      2917      2920      2923      2919      2917      2920      2921
      2919      2917      2920      2922      2919      2917      2920      2923
      2920      2923      2926      2927      2920      2923      2926      2928
      2920      2923      2926      2929      2921      2920      2923      2924
      2921      2920      2923      2925      2921      2920      2923      2926
      2922      2920      2923      2924      2922      2920      2923      2925
      2922      2920      2923      2926      2923      2926      2929      2930
      2923      2926      2929      2931      2923      2926      2929      2932
      2924      2923      2926      2927      2924      2923      2926      2928
      2924      2923      2926      2929      2925      2923      2926      2927
      2925      2923      2926      2928      2925      2923      2926      2929
      2926      2929      2932      2933      2926      2929      2932      2934
      2927      2926      2929      2930      2927      2926      2929      2931
      2927      2926      2929      2932      2928      2926      2929      2930
      2928      2926      2929      2931      2928      2926      2929      2932
      2929      2932      2934      2935      2929      2932      2934      2936
      2930      2929      2932      2933      2930      2929      2932      2934
      2931      2929      2932      2933      2931      2929      2932      2934
      2932      2934      2936      2937      2932      2934      2936      2938
      2932      2934      2936      2939      2933      2932      2934      2935
      2933      2932      2934      2936      2934      2936      2939      2940
      2934      2936      2939      2941      2934      2936      2939      2942
      2935      2934      2936      2937      2935      2934      2936      2938
      2935      2934      2936      2939      2936      2939      2942      2943
      2936      2939      2942      2944      2936      2939      2942      2945
      2937      2936      2939      2940      2937      2936      2939      2941
      2937      2936      2939      2942      2938      2936      2939      2940
      2938      2936      2939      2941      2938      2936      2939      2942
      2939      2942      2945      2946      2939      2942      2945      2947
      2939      2942      2945      2948      2940      2939      2942      2943
      2940      2939      2942      2944      2940      2939      2942      2945
      2941      2939      2942      2943      2941      2939      2942      2944
      2941      2939      2942      2945      2942      2945      2948      2949
      2942      2945      2948      2950      2942      2945      2948      2951
      2943      2942      2945      2946      2943      2942      2945      2947
      2943      2942      2945      2948      2944      2942      2945      2946
      2944      2942      2945      2947      2944      2942      2945      2948
      2945      2948      2951      2952      2945      2948      2951      2953
      2945      2948      2951      2954      2946      2945      2948      2949
      2946      2945      2948      2950      2946      2945      2948      2951
      2947      2945      2948      2949      2947      2945      2948      2950
      2947      2945      2948      2951      2948      2951      2954      2955
      2948      2951      2954      2956      2948      2951      2954      2957
      2949      2948      2951      2952      2949      2948      2951      2953
      2949      2948      2951      2954      2950      2948      2951      2952
      2950      2948      2951      2953      2950      2948      2951      2954
      2951      2954      2957      2958      2951      2954      2957      2959
      2951      2954      2957      2960      2952      2951      2954      2955
      2952      2951      2954      2956      2952      2951      2954      2957
      2953      2951      2954      2955      2953      2951      2954      2956
      2953      2951      2954      2957      2955      2954      2957      2958
      2955      2954      2957      2959      2955      2954      2957      2960
      2956      2954      2957      2958      2956      2954      2957      2959
      2956      2954      2957      2960      2961      2964      2967      2968
      2961      2964      2967      2969      2961      2964      2967      2970
      2962      2961      2964      2965      2962      2961      2964      2966
      2962      2961      2964      2967      2963      2961      2964      2965
      2963      2961      2964      2966      2963      2961      2964      2967
      2964      2967      2970      2971      2964      2967      2970      2972
      2964      2967      2970      2973      2965      2964      2967      2968
      2965      2964      2967      2969      2965      2964      2967      2970
      2966      2964      2967      2968      2966      2964      2967      2969
      2966      2964      2967      2970      2967      2970      2973      2974
      2967      2970      2973      2975      2967      2970      2973      2976
      2968      2967      2970      2971      2968      2967      2970      2972
      2968      2967      2970      2973      2969      2967      2970      2971
      2969      2967      2970      2972      2969      2967      2970      2973
      2970      2973      2976      2977      2970      2973      2976      2978
      2970      2973      2976      2979      2971      2970      2973      2974
      2971      2970      2973      2975      2971      2970      2973      2976
      2972      2970      2973      2974      2972      2970      2973      2975
      2972      2970      2973      2976      2973      2976      2979      2980
      2973      2976      2979      2981      2973      2976      2979      2982
      2974      2973      2976      2977      2974      2973      2976      2978
      2974      2973      2976      2979      2975      2973      2976      2977
      2975      2973      2976      2978      2975      2973      2976      2979
      2976      2979      2982      2983      2976      2979      2982      2984
      2976      2979      2982      2985      2977      2976      2979      2980
      2977      2976      2979      2981      2977      2976      2979      2982
      2978      2976      2979      2980      2978      2976      2979      2981
      2978      2976      2979      2982      2979      2982      2985      2986
      2979      2982      2985      2987      2979      2982      2985      2988
      2980      2979      2982      2983      2980      2979      2982      2984
      2980      2979      2982      2985      2981      2979      2982      2983
      2981      2979      2982      2984      2981      2979      2982      2985
      2982      2985      2988      2989      2982      2985      2988      2990
      2982      2985      2988      2991      2983      2982      2985      2986
      2983      2982      2985      2987      2983      2982      2985      2988
      2984      2982      2985      2986      2984      2982      2985      2987
      2984      2982      2985      2988      2985      2988      2991      2992
      2985      2988      2991      2993      2985      2988      2991      2994
      2986      2985      2988      2989      2986      2985      2988      2990
      2986      2985      2988      2991      2987      2985      2988      2989
      2987      2985      2988      2990      2987      2985      2988      2991
      2988      2991      2994      2995      2988      2991      2994      2996
      2988      2991      2994      2997      2989      2988      2991      2992
      2989      2988      2991      2993      2989      2988      2991      2994
      2990      2988      2991      2992      2990      2988      2991      2993
      2990      2988      2991      2994      2991      2994      2997      2998
      2991      2994      2997      2999      2991      2994      2997      3000
      2992      2991      2994      2995      2992      2991      2994      2996
      2992      2991      2994      2997      2993      2991      2994      2995
      2993      2991      2994      2996      2993      2991      2994      2997
      2994      2997      3000      3001      2994      2997      3000      3002
      2994      2997      3000      3003      2995      2994      2997      2998
      2995      2994      2997      2999      2995      2994      2997      3000
      2996      2994      2997      2998      2996      2994      2997      2999
      2996      2994      2997      3000      2998      2997      3000      3001
      2998      2997      3000      3002      2998      2997      3000      3003
      2999      2997      3000      3001      2999      2997      3000      3002
      2999      2997      3000      3003      3004      3005      3020      3021
      3004      3005      3020      3022      3004      3005      3020      3026
      3005      3004      3008      3009      3005      3004      3008      3010
      3005      3004      3008      3011      3005      3004      3012      3013
      3005      3004      3012      3014      3005      3004      3012      3015
      3005      3004      3016      3017      3005      3004      3016      3018
      3005      3004      3016      3019      3005      3020      3026      3023
      3006      3005      3004      3008      3006      3005      3004      3012
      3006      3005      3004      3016      3006      3005      3020      3021
      3006      3005      3020      3022      3006      3005      3020      3026
      3007      3005      3004      3008      3007      3005      3004      3012
      3007      3005      3004      3016      3007      3005      3020      3021
      3007      3005      3020      3022      3007      3005      3020      3026
      3008      3004      3005      3020      3008      3004      3012      3013
      3008      3004      3012      3014      3008      3004      3012      3015
      3008      3004      3016      3017      3008      3004      3016      3018
      3008      3004      3016      3019      3009      3008      3004      3012
      3009      3008      3004      3016      3010      3008      3004      3012
      3010      3008      3004      3016      3011      3008      3004      3012
      3011      3008      3004      3016      3012      3004      3005      3020
      3012      3004      3016      3017      3012      3004      3016      3018
      3012      3004      3016      3019      3013      3012      3004      3016
      3014      3012      3004      3016      3015      3012      3004      3016
      3016      3004      3005      3020      3020      3026      3023      3024
      3020      3026      3023      3025      3020      3026      3023      3027
      3021      3020      3026      3023      3022      3020      3026      3023
      3023      3027      3028      3029      3023      3027      3028      3030
      3023      3027      3028      3031      3024      3023      3027      3028
      3025      3023      3027      3028      3026      3023      3027      3028
      3027      3028      3031      3032      3027      3028      3031      3033
      3027      3028      3031      3039      3028      3031      3033      3034
      3028      3031      3039      3040      3028      3031      3039      3041
      3028      3031      3039      3042      3029      3028      3031      3032
      3029      3028      3031      3033      3029      3028      3031      3039
      3030      3028      3031      3032      3030      3028      3031      3033
      3030      3028      3031      3039      3031      3033      3034      3035
      3031      3033      3034      3036      3031      3039      3042      3043
      3032      3031      3033      3034      3032      3031      3039      3040
      3032      3031      3039      3041      3032      3031      3039      3042
      3033      3031      3039      3040      3033      3031      3039      3041
      3033      3031      3039      3042      3033      3034      3036      3037
      3033      3034      3036      3038      3033      3034      3036      3048
      3034      3033      3031      3039      3034      3036      3048      3049
      3034      3036      3048      3050      3034      3036      3048      3051
      3035      3034      3036      3037      3035      3034      3036      3038
      3035      3034      3036      3048      3036      3048      3051      3052
      3036      3048      3051      3053      3036      3048      3051      3054
      3037      3036      3048      3049      3037      3036      3048      3050
      3037      3036      3048      3051      3038      3036      3048      3049
      3038      3036      3048      3050      3038      3036      3048      3051
      3039      3042      3043      3044      3039      3042      3043      3045
      3040      3039      3042      3043      3041      3039      3042      3043
      3042      3043      3045      3046      3042      3043      3045      3047
      3042      3043      3045      3095      3043      3045      3095      3096
      3043      3045      3095      3097      3043      3045      3095      3098
      3044      3043      3045      3046      3044      3043      3045      3047
      3044      3043      3045      3095      3045      3095      3098      3099
      3045      3095      3098      3100      3045      3095      3098      3101
      3046      3045      3095      3096      3046      3045      3095      3097
      3046      3045      3095      3098      3047      3045      3095      3096
      3047      3045      3095      3097      3047      3045      3095      3098
      3048      3051      3054      3055      3048      3051      3054      3056
      3048      3051      3054      3057      3049      3048      3051      3052
      3049      3048      3051      3053      3049      3048      3051      3054
      3050      3048      3051      3052      3050      3048      3051      3053
      3050      3048      3051      3054      3051      3054      3057      3058
      3051      3054      3057      3059      3051      3054      3057      3060
      3052      3051      3054      3055      3052      3051      3054      3056
      3052      3051      3054      3057      3053      3051      3054      3055
      3053      3051      3054      3056      3053      3051      3054      3057
      3054      3057      3060      3061      3054      3057      3060      3062
      3054      3057      3060      3063      3055      3054      3057      3058
      3055      3054      3057      3059      3055      3054      3057      3060
      3056      3054      3057      3058      3056      3054      3057      3059
      3056      3054      3057      3060      3057      3060      3063      3064
      3057      3060      3063      3065      3057      3060      3063      3066
      3058      3057      3060      3061      3058      3057      3060      3062
      3058      3057      3060      3063      3059      3057      3060      3061
      3059      3057      3060      3062      3059      3057      3060      3063
      3060      3063      3066      3067      3060      3063      3066      3068
      3061      3060      3063      3064      3061      3060      3063      3065
      3061      3060      3063      3066      3062      3060      3063      3064
      3062      3060      3063      3065      3062      3060      3063      3066
      3063      3066      3068      3069      3063      3066      3068      3070
      3064      3063      3066      3067      3064      3063      3066      3068
      3065      3063      3066      3067      3065      3063      3066      3068
      3066      3068      3070      3071      3066      3068      3070      3072
      3066      3068      3070      3073      3067      3066      3068      3069
      3067      3066      3068      3070      3068      3070      3073      3074
      3068      3070      3073      3075      3068      3070      3073      3076
      3069      3068      3070      3071      3069      3068      3070      3072
      3069      3068      3070      3073      3070      3073      3076      3077
      3070      3073      3076      3078      3070      3073      3076      3079
      3071      3070      3073      3074      3071      3070      3073      3075
      3071      3070      3073      3076      3072      3070      3073      3074
      3072      3070      3073      3075      3072      3070      3073      3076
      3073      3076      3079      3080      3073      3076      3079      3081
      3073      3076      3079      3082      3074      3073      3076      3077
      3074      3073      3076      3078      3074      3073      3076      3079
      3075      3073      3076      3077      3075      3073      3076      3078
      3075      3073      3076      3079      3076      3079      3082      3083
      3076      3079      3082      3084      3076      3079      3082      3085
      3077      3076      3079      3080      3077      3076      3079      3081
      3077      3076      3079      3082      3078      3076      3079      3080
      3078      3076      3079      3081      3078      3076      3079      3082
      3079      3082      3085      3086      3079      3082      3085      3087
      3079      3082      3085      3088      3080      3079      3082      3083
      3080      3079      3082      3084      3080      3079      3082      3085
      3081      3079      3082      3083      3081      3079      3082      3084
      3081      3079      3082      3085      3082      3085      3088      3089
      3082      3085      3088      3090      3082      3085      3088      3091
      3083      3082      3085      3086      3083      3082      3085      3087
      3083      3082      3085      3088      3084      3082      3085      3086
      3084      3082      3085      3087      3084      3082      3085      3088
      3085      3088      3091      3092      3085      3088      3091      3093
      3085      3088      3091      3094      3086      3085      3088      3089
      3086      3085      3088      3090      3086      3085      3088      3091
      3087      3085      3088      3089      3087      3085      3088      3090
      3087      3085      3088      3091      3089      3088      3091      3092
      3089      3088      3091      3093      3089      3088      3091      3094
      3090      3088      3091      3092      3090      3088      3091      3093
      3090      3088      3091      3094      3095      3098      3101      3102
      3095      3098      3101      3103      3095      3098      3101      3104
      3096      3095      3098      3099      3096      3095      3098      3100
      3096      3095      3098      3101      3097      3095      3098      3099
      3097      3095      3098      3100      3097      3095      3098      3101
      3098      3101      3104      3105      3098      3101      3104      3106
      3098      3101      3104      3107      3099      3098      3101      3102
      3099      3098      3101      3103      3099      3098      3101      3104
      3100      3098      3101      3102      3100      3098      3101      3103
      3100      3098      3101      3104      3101      3104      3107      3108
      3101      3104      3107      3109      3101      3104      3107      3110
      3102      3101      3104      3105      3102      3101      3104      3106
      3102      3101      3104      3107      3103      3101      3104      3105
      3103      3101      3104      3106      3103      3101      3104      3107
      3104      3107      3110      3111      3104      3107      3110      3112
      3104      3107      3110      3113      3105      3104      3107      3108
      3105      3104      3107      3109      3105      3104      3107      3110
      3106      3104      3107      3108      3106      3104      3107      3109
      3106      3104      3107      3110      3107      3110      3113      3114
      3107      3110      3113      3115      3107      3110      3113      3116
      3108      3107      3110      3111      3108      3107      3110      3112
      3108      3107      3110      3113      3109      3107      3110      3111
      3109      3107      3110      3112      3109      3107      3110      3113
      3110      3113      3116      3117      3110      3113      3116      3118
      3110      3113      3116      3119      3111      3110      3113      3114
      3111      3110      3113      3115      3111      3110      3113      3116
      3112      3110      3113      3114      3112      3110      3113      3115
      3112      3110      3113      3116      3113      3116      3119      3120
      3113      3116      3119      3121      3113      3116      3119      3122
      3114      3113      3116      3117      3114      3113      3116      3118
      3114      3113      3116      3119      3115      3113      3116      3117
      3115      3113      3116      3118      3115      3113      3116      3119
      3116      3119      3122      3123      3116      3119      3122      3124
      3116      3119      3122      3125      3117      3116      3119      3120
      3117      3116      3119      3121      3117      3116      3119      3122
      3118      3116      3119      3120      3118      3116      3119      3121
      3118      3116      3119      3122      3119      3122      3125      3126
      3119      3122      3125      3127      3119      3122      3125      3128
      3120      3119      3122      3123      3120      3119      3122      3124
      3120      3119      3122      3125      3121      3119      3122      3123
      3121      3119      3122      3124      3121      3119      3122      3125
      3122      3125      3128      3129      3122      3125      3128      3130
      3122      3125      3128      3131      3123      3122      3125      3126
      3123      3122      3125      3127      3123      3122      3125      3128
      3124      3122      3125      3126      3124      3122      3125      3127
      3124      3122      3125      3128      3125      3128      3131      3132
      3125      3128      3131      3133      3125      3128      3131      3134
      3126      3125      3128      3129      3126      3125      3128      3130
      3126      3125      3128      3131      3127      3125      3128      3129
      3127      3125      3128      3130      3127      3125      3128      3131
      3128      3131      3134      3135      3128      3131      3134      3136
      3128      3131      3134      3137      3129      3128      3131      3132
      3129      3128      3131      3133      3129      3128      3131      3134
      3130      3128      3131      3132      3130      3128      3131      3133
      3130      3128      3131      3134      3132      3131      3134      3135
      3132      3131      3134      3136      3132      3131      3134      3137
      3133      3131      3134      3135      3133      3131      3134      3136
      3133      3131      3134      3137      3138      3142      3144      3145
      3138      3142      3144      3146      3138      3142      3147      3148
      3138      3142      3147      3149      3138      3142      3147      3153
      3139      3138      3142      3143      3139      3138      3142      3144
      3139      3138      3142      3147      3140      3138      3142      3143
      3140      3138      3142      3144      3140      3138      3142      3147
      3141      3138      3142      3143      3141      3138      3142      3144
      3141      3138      3142      3147      3142      3147      3153      3150
      3143      3142      3144      3145      3143      3142      3144      3146
      3143      3142      3147      3148      3143      3142      3147      3149
      3143      3142      3147      3153      3144      3142      3147      3148
      3144      3142      3147      3149      3144      3142      3147      3153
      3145      3144      3142      3147      3146      3144      3142      3147
      3147      3153      3150      3151      3147      3153      3150      3152
      3147      3153      3150      3154      3148      3147      3153      3150
      3149      3147      3153      3150      3150      3154      3155      3156
      3150      3154      3155      3157      3150      3154      3155      3158
      3151      3150      3154      3155      3152      3150      3154      3155
      3153      3150      3154      3155      3154      3155      3158      3159
      3154      3155      3158      3160      3154      3155      3158      3166
      3155      3158      3160      3161      3155      3158      3166      3167
      3155      3158      3166      3168      3155      3158      3166      3169
      3156      3155      3158      3159      3156      3155      3158      3160
      3156      3155      3158      3166      3157      3155      3158      3159
      3157      3155      3158      3160      3157      3155      3158      3166
      3158      3160      3161      3162      3158      3160      3161      3163
      3158      3166      3169      3170      3159      3158      3160      3161
      3159      3158      3166      3167      3159      3158      3166      3168
      3159      3158      3166      3169      3160      3158      3166      3167
      3160      3158      3166      3168      3160      3158      3166      3169
      3160      3161      3163      3164      3160      3161      3163      3165
      3160      3161      3163      3175      3161      3160      3158      3166
      3161      3163      3175      3176      3161      3163      3175      3177
      3161      3163      3175      3178      3162      3161      3163      3164
      3162      3161      3163      3165      3162      3161      3163      3175
      3163      3175      3178      3179      3163      3175      3178      3180
      3163      3175      3178      3181      3164      3163      3175      3176
      3164      3163      3175      3177      3164      3163      3175      3178
      3165      3163      3175      3176      3165      3163      3175      3177
      3165      3163      3175      3178      3166      3169      3170      3171
      3166      3169      3170      3172      3167      3166      3169      3170
      3168      3166      3169      3170      3169      3170      3172      3173
      3169      3170      3172      3174      3169      3170      3172      3222
      3170      3172      3222      3223      3170      3172      3222      3224
      3170      3172      3222      3225      3171      3170      3172      3173
      3171      3170      3172      3174      3171      3170      3172      3222
      3172      3222      3225      3226      3172      3222      3225      3227
      3172      3222      3225      3228      3173      3172      3222      3223
      3173      3172      3222      3224      3173      3172      3222      3225
      3174      3172      3222      3223      3174      3172      3222      3224
      3174      3172      3222      3225      3175      3178      3181      3182
      3175      3178      3181      3183      3175      3178      3181      3184
      3176      3175      3178      3179      3176      3175      3178      3180
      3176      3175      3178      3181      3177      3175      3178      3179
      3177      3175      3178      3180      3177      3175      3178      3181
      3178      3181      3184      3185      3178      3181      3184      3186
      3178      3181      3184      3187      3179      3178      3181      3182
      3179      3178      3181      3183      3179      3178      3181      3184
      3180      3178      3181      3182      3180      3178      3181      3183
      3180      3178      3181      3184      3181      3184      3187      3188
      3181      3184      3187      3189      3181      3184      3187      3190
      3182      3181      3184      3185      3182      3181      3184      3186
      3182      3181      3184      3187      3183      3181      3184      3185
      3183      3181      3184      3186      3183      3181      3184      3187
      3184      3187      3190      3191      3184      3187      3190      3192
      3184      3187      3190      3193      3185      3184      3187      3188
      3185      3184      3187      3189      3185      3184      3187      3190
      3186      3184      3187      3188      3186      3184      3187      3189
      3186      3184      3187      3190      3187      3190      3193      3194
      3187      3190      3193      3195      3188      3187      3190      3191
      3188      3187      3190      3192      3188      3187      3190      3193
      3189      3187      3190      3191      3189      3187      3190      3192
      3189      3187      3190      3193      3190      3193      3195      3196
      3190      3193      3195      3197      3191      3190      3193      3194
      3191      3190      3193      3195      3192      3190      3193      3194
      3192      3190      3193      3195      3193      3195      3197      3198
      3193      3195      3197      3199      3193      3195      3197      3200
      3194      3193      3195      3196      3194      3193      3195      3197
      3195      3197      3200      3201      3195      3197      3200      3202
      3195      3197      3200      3203      3196      3195      3197      3198
      3196      3195      3197      3199      3196      3195      3197      3200
      3197      3200      3203      3204      3197      3200      3203      3205
      3197      3200      3203      3206      3198      3197      3200      3201
      3198      3197      3200      3202      3198      3197      3200      3203
      3199      3197      3200      3201      3199      3197      3200      3202
      3199      3197      3200      3203      3200      3203      3206      3207
      3200      3203      3206      3208      3200      3203      3206      3209
      3201      3200      3203      3204      3201      3200      3203      3205
      3201      3200      3203      3206      3202      3200      3203      3204
      3202      3200      3203      3205      3202      3200      3203      3206
      3203      3206      3209      3210      3203      3206      3209      3211
      3203      3206      3209      3212      3204      3203      3206      3207
      3204      3203      3206      3208      3204      3203      3206      3209
      3205      3203      3206      3207      3205      3203      3206      3208
      3205      3203      3206      3209      3206      3209      3212      3213
      3206      3209      3212      3214      3206      3209      3212      3215
      3207      3206      3209      3210      3207      3206      3209      3211
      3207      3206      3209      3212      3208      3206      3209      3210
      3208      3206      3209      3211      3208      3206      3209      3212
      3209      3212      3215      3216      3209      3212      3215      3217
      3209      3212      3215      3218      3210      3209      3212      3213
      3210      3209      3212      3214      3210      3209      3212      3215
      3211      3209      3212      3213      3211      3209      3212      3214
      3211      3209      3212      3215      3212      3215      3218      3219
      3212      3215      3218      3220      3212      3215      3218      3221
      3213      3212      3215      3216      3213      3212      3215      3217
      3213      3212      3215      3218      3214      3212      3215      3216
      3214      3212      3215      3217      3214      3212      3215      3218
      3216      3215      3218      3219      3216      3215      3218      3220
      3216      3215      3218      3221      3217      3215      3218      3219
      3217      3215      3218      3220      3217      3215      3218      3221
      3222      3225      3228      3229      3222      3225      3228      3230
      3222      3225      3228      3231      3223      3222      3225      3226
      3223      3222      3225      3227      3223      3222      3225      3228
      3224      3222      3225      3226      3224      3222      3225      3227
      3224      3222      3225      3228      3225      3228      3231      3232
      3225      3228      3231      3233      3225      3228      3231      3234
      3226      3225      3228      3229      3226      3225      3228      3230
      3226      3225      3228      3231      3227      3225      3228      3229
      3227      3225      3228      3230      3227      3225      3228      3231
      3228      3231      3234      3235      3228      3231      3234      3236
      3228      3231      3234      3237      3229      3228      3231      3232
      3229      3228      3231      3233      3229      3228      3231      3234
      3230      3228      3231      3232      3230      3228      3231      3233
      3230      3228      3231      3234      3231      3234      3237      3238
      3231      3234      3237      3239      3231      3234      3237      3240
      3232      3231      3234      3235      3232      3231      3234      3236
      3232      3231      3234      3237      3233      3231      3234      3235
      3233      3231      3234      3236      3233      3231      3234      3237
      3234      3237      3240      3241      3234      3237      3240      3242
      3234      3237      3240      3243      3235      3234      3237      3238
      3235      3234      3237      3239      3235      3234      3237      3240
      3236      3234      3237      3238      3236      3234      3237      3239
      3236      3234      3237      3240      3237      3240      3243      3244
      3237      3240      3243      3245      3237      3240      3243      3246
      3238      3237      3240      3241      3238      3237      3240      3242
      3238      3237      3240      3243      3239      3237      3240      3241
      3239      3237      3240      3242      3239      3237      3240      3243
      3240      3243      3246      3247      3240      3243      3246      3248
      3240      3243      3246      3249      3241      3240      3243      3244
      3241      3240      3243      3245      3241      3240      3243      3246
      3242      3240      3243      3244      3242      3240      3243      3245
      3242      3240      3243      3246      3243      3246      3249      3250
      3243      3246      3249      3251      3243      3246      3249      3252
      3244      3243      3246      3247      3244      3243      3246      3248
      3244      3243      3246      3249      3245      3243      3246      3247
      3245      3243      3246      3248      3245      3243      3246      3249
      3246      3249      3252      3253      3246      3249      3252      3254
      3246      3249      3252      3255      3247      3246      3249      3250
      3247      3246      3249      3251      3247      3246      3249      3252
      3248      3246      3249      3250      3248      3246      3249      3251
      3248      3246      3249      3252      3249      3252      3255      3256
      3249      3252      3255      3257      3249      3252      3255      3258
      3250      3249      3252      3253      3250      3249      3252      3254
      3250      3249      3252      3255      3251      3249      3252      3253
      3251      3249      3252      3254      3251      3249      3252      3255
      3252      3255      3258      3259      3252      3255      3258      3260
      3252      3255      3258      3261      3253      3252      3255      3256
      3253      3252      3255      3257      3253      3252      3255      3258
      3254      3252      3255      3256      3254      3252      3255      3257
      3254      3252      3255      3258      3255      3258      3261      3262
      3255      3258      3261      3263      3255      3258      3261      3264
      3256      3255      3258      3259      3256      3255      3258      3260
      3256      3255      3258      3261      3257      3255      3258      3259
      3257      3255      3258      3260      3257      3255      3258      3261
      3259      3258      3261      3262      3259      3258      3261      3263
      3259      3258      3261      3264      3260      3258      3261      3262
      3260      3258      3261      3263      3260      3258      3261      3264
      3265      3266      3281      3282      3265      3266      3281      3283
      3265      3266      3281      3287      3266      3265      3269      3270
      3266      3265      3269      3271      3266      3265      3269      3272
      3266      3265      3273      3274      3266      3265      3273      3275
      3266      3265      3273      3276      3266      3265      3277      3278
      3266      3265      3277      3279      3266      3265      3277      3280
      3266      3281      3287      3284      3267      3266      3265      3269
      3267      3266      3265      3273      3267      3266      3265      3277
      3267      3266      3281      3282      3267      3266      3281      3283
      3267      3266      3281      3287      3268      3266      3265      3269
      3268      3266      3265      3273      3268      3266      3265      3277
      3268      3266      3281      3282      3268      3266      3281      3283
      3268      3266      3281      3287      3269      3265      3266      3281
      3269      3265      3273      3274      3269      3265      3273      3275
      3269      3265      3273      3276      3269      3265      3277      3278
      3269      3265      3277      3279      3269      3265      3277      3280
      3270      3269      3265      3273      3270      3269      3265      3277
      3271      3269      3265      3273      3271      3269      3265      3277
      3272      3269      3265      3273      3272      3269      3265      3277
      3273      3265      3266      3281      3273      3265      3277      3278
      3273      3265      3277      3279      3273      3265      3277      3280
      3274      3273      3265      3277      3275      3273      3265      3277
      3276      3273      3265      3277      3277      3265      3266      3281
      3281      3287      3284      3285      3281      3287      3284      3286
      3281      3287      3284      3288      3282      3281      3287      3284
      3283      3281      3287      3284      3284      3288      3289      3290
      3284      3288      3289      3291      3284      3288      3289      3292
      3285      3284      3288      3289      3286      3284      3288      3289
      3287      3284      3288      3289      3288      3289      3292      3293
      3288      3289      3292      3294      3288      3289      3292      3300
      3289      3292      3294      3295      3289      3292      3300      3301
      3289      3292      3300      3302      3289      3292      3300      3303
      3290      3289      3292      3293      3290      3289      3292      3294
      3290      3289      3292      3300      3291      3289      3292      3293
      3291      3289      3292      3294      3291      3289      3292      3300
      3292      3294      3295      3296      3292      3294      3295      3297
      3292      3300      3303      3304      3293      3292      3294      3295
      3293      3292      3300      3301      3293      3292      3300      3302
      3293      3292      3300      3303      3294      3292      3300      3301
      3294      3292      3300      3302      3294      3292      3300      3303
      3294      3295      3297      3298      3294      3295      3297      3299
      3294      3295      3297      3309      3295      3294      3292      3300
      3295      3297      3309      3310      3295      3297      3309      3311
      3295      3297      3309      3312      3296      3295      3297      3298
      3296      3295      3297      3299      3296      3295      3297      3309
      3297      3309      3312      3313      3297      3309      3312      3314
      3297      3309      3312      3315      3298      3297      3309      3310
      3298      3297      3309      3311      3298      3297      3309      3312
      3299      3297      3309      3310      3299      3297      3309      3311
      3299      3297      3309      3312      3300      3303      3304      3305
      3300      3303      3304      3306      3301      3300      3303      3304
      3302      3300      3303      3304      3303      3304      3306      3307
      3303      3304      3306      3308      3303      3304      3306      3356
      3304      3306      3356      3357      3304      3306      3356      3358
      3304      3306      3356      3359      3305      3304      3306      3307
      3305      3304      3306      3308      3305      3304      3306      3356
      3306      3356      3359      3360      3306      3356      3359      3361
      3306      3356      3359      3362      3307      3306      3356      3357
      3307      3306      3356      3358      3307      3306      3356      3359
      3308      3306      3356      3357      3308      3306      3356      3358
      3308      3306      3356      3359      3309      3312      3315      3316
      3309      3312      3315      3317      3309      3312      3315      3318
      3310      3309      3312      3313      3310      3309      3312      3314
      3310      3309      3312      3315      3311      3309      3312      3313
      3311      3309      3312      3314      3311      3309      3312      3315
      3312      3315      3318      3319      3312      3315      3318      3320
      3312      3315      3318      3321      3313      3312      3315      3316
      3313      3312      3315      3317      3313      3312      3315      3318
      3314      3312      3315      3316      3314      3312      3315      3317
      3314      3312      3315      3318      3315      3318      3321      3322
      3315      3318      3321      3323      3315      3318      3321      3324
      3316      3315      3318      3319      3316      3315      3318      3320
      3316      3315      3318      3321      3317      3315      3318      3319
      3317      3315      3318      3320      3317      3315      3318      3321
      3318      3321      3324      3325      3318      3321      3324      3326
      3318      3321      3324      3327      3319      3318      3321      3322
      3319      3318      3321      3323      3319      3318      3321      3324
      3320      3318      3321      3322      3320      3318      3321      3323
      3320      3318      3321      3324      3321      3324      3327      3328
      3321      3324      3327      3329      3322      3321      3324      3325
      3322      3321      3324      3326      3322      3321      3324      3327
      3323      3321      3324      3325      3323      3321      3324      3326
      3323      3321      3324      3327      3324      3327      3329      3330
      3324      3327      3329      3331      3325      3324      3327      3328
      3325      3324      3327      3329      3326      3324      3327      3328
      3326      3324      3327      3329      3327      3329      3331      3332
      3327      3329      3331      3333      3327      3329      3331      3334
      3328      3327      3329      3330      3328      3327      3329      3331
      3329      3331      3334      3335      3329      3331      3334      3336
      3329      3331      3334      3337      3330      3329      3331      3332
      3330      3329      3331      3333      3330      3329      3331      3334
      3331      3334      3337      3338      3331      3334      3337      3339
      3331      3334      3337      3340      3332      3331      3334      3335
      3332      3331      3334      3336      3332      3331      3334      3337
      3333      3331      3334      3335      3333      3331      3334      3336
      3333      3331      3334      3337      3334      3337      3340      3341
      3334      3337      3340      3342      3334      3337      3340      3343
      3335      3334      3337      3338      3335      3334      3337      3339
      3335      3334      3337      3340      3336      3334      3337      3338
      3336      3334      3337      3339      3336      3334      3337      3340
      3337      3340      3343      3344      3337      3340      3343      3345
      3337      3340      3343      3346      3338      3337      3340      3341
      3338      3337      3340      3342      3338      3337      3340      3343
      3339      3337      3340      3341      3339      3337      3340      3342
      3339      3337      3340      3343      3340      3343      3346      3347
      3340      3343      3346      3348      3340      3343      3346      3349
      3341      3340      3343      3344      3341      3340      3343      3345
      3341      3340      3343      3346      3342      3340      3343      3344
      3342      3340      3343      3345      3342      3340      3343      3346
      3343      3346      3349      3350      3343      3346      3349      3351
      3343      3346      3349      3352      3344      3343      3346      3347
      3344      3343      3346      3348      3344      3343      3346      3349
      3345      3343      3346      3347      3345      3343      3346      3348
      3345      3343      3346      3349      3346      3349      3352      3353
      3346      3349      3352      3354      3346      3349      3352      3355
      3347      3346      3349      3350      3347      3346      3349      3351
      3347      3346      3349      3352      3348      3346      3349      3350
      3348      3346      3349      3351      3348      3346      3349      3352
      3350      3349      3352      3353      3350      3349      3352      3354
      3350      3349      3352      3355      3351      3349      3352      3353
      3351      3349      3352      3354      3351      3349      3352      3355
      3356      3359      3362      3363      3356      3359      3362      3364
      3356      3359      3362      3365      3357      3356      3359      3360
      3357      3356      3359      3361      3357      3356      3359      3362
      3358      3356      3359      3360      3358      3356      3359      3361
      3358      3356      3359      3362      3359      3362      3365      3366
      3359      3362      3365      3367      3359      3362      3365      3368
      3360      3359      3362      3363      3360      3359      3362      3364
      3360      3359      3362      3365      3361      3359      3362      3363
      3361      3359      3362      3364      3361      3359      3362      3365
      3362      3365      3368      3369      3362      3365      3368      3370
      3362      3365      3368      3371      3363      3362      3365      3366
      3363      3362      3365      3367      3363      3362      3365      3368
      3364      3362      3365      3366      3364      3362      3365      3367
      3364      3362      3365      3368      3365      3368      3371      3372
      3365      3368      3371      3373      3365      3368      3371      3374
      3366      3365      3368      3369      3366      3365      3368      3370
      3366      3365      3368      3371      3367      3365      3368      3369
      3367      3365      3368      3370      3367      3365      3368      3371
      3368      3371      3374      3375      3368      3371      3374      3376
      3368      3371      3374      3377      3369      3368      3371      3372
      3369      3368      3371      3373      3369      3368      3371      3374
      3370      3368      3371      3372      3370      3368      3371      3373
      3370      3368      3371      3374      3371      3374      3377      3378
      3371      3374      3377      3379      3371      3374      3377      3380
      3372      3371      3374      3375      3372      3371      3374      3376
      3372      3371      3374      3377      3373      3371      3374      3375
      3373      3371      3374      3376      3373      3371      3374      3377
      3374      3377      3380      3381      3374      3377      3380      3382
      3374      3377      3380      3383      3375      3374      3377      3378
      3375      3374      3377      3379      3375      3374      3377      3380
      3376      3374      3377      3378      3376      3374      3377      3379
      3376      3374      3377      3380      3377      3380      3383      3384
      3377      3380      3383      3385      3377      3380      3383      3386
      3378      3377      3380      3381      3378      3377      3380      3382
      3378      3377      3380      3383      3379      3377      3380      3381
      3379      3377      3380      3382      3379      3377      3380      3383
      3380      3383      3386      3387      3380      3383      3386      3388
      3380      3383      3386      3389      3381      3380      3383      3384
      3381      3380      3383      3385      3381      3380      3383      3386
      3382      3380      3383      3384      3382      3380      3383      3385
      3382      3380      3383      3386      3383      3386      3389      3390
      3383      3386      3389      3391      3383      3386      3389      3392
      3384      3383      3386      3387      3384      3383      3386      3388
      3384      3383      3386      3389      3385      3383      3386      3387
      3385      3383      3386      3388      3385      3383      3386      3389
      3386      3389      3392      3393      3386      3389      3392      3394
      3386      3389      3392      3395      3387      3386      3389      3390
      3387      3386      3389      3391      3387      3386      3389      3392
      3388      3386      3389      3390      3388      3386      3389      3391
      3388      3386      3389      3392      3389      3392      3395      3396
      3389      3392      3395      3397      3389      3392      3395      3398
      3390      3389      3392      3393      3390      3389      3392      3394
      3390      3389      3392      3395      3391      3389      3392      3393
      3391      3389      3392      3394      3391      3389      3392      3395
      3393      3392      3395      3396      3393      3392      3395      3397
      3393      3392      3395      3398      3394      3392      3395      3396
      3394      3392      3395      3397      3394      3392      3395      3398
      3399      3400      3415      3416      3399      3400      3415      3417
      3399      3400      3415      3421      3400      3399      3403      3404
      3400      3399      3403      3405      3400      3399      3403      3406
      3400      3399      3407      3408      3400      3399      3407      3409
      3400      3399      3407      3410      3400      3399      3411      3412
      3400      3399      3411      3413      3400      3399      3411      3414
      3400      3415      3421      3418      3401      3400      3399      3403
      3401      3400      3399      3407      3401      3400      3399      3411
      3401      3400      3415      3416      3401      3400      3415      3417
      3401      3400      3415      3421      3402      3400      3399      3403
      3402      3400      3399      3407      3402      3400      3399      3411
      3402      3400      3415      3416      3402      3400      3415      3417
      3402      3400      3415      3421      3403      3399      3400      3415
      3403      3399      3407      3408      3403      3399      3407      3409
      3403      3399      3407      3410      3403      3399      3411      3412
      3403      3399      3411      3413      3403      3399      3411      3414
      3404      3403      3399      3407      3404      3403      3399      3411
      3405      3403      3399      3407      3405      3403      3399      3411
      3406      3403      3399      3407      3406      3403      3399      3411
      3407      3399      3400      3415      3407      3399      3411      3412
      3407      3399      3411      3413      3407      3399      3411      3414
      3408      3407      3399      3411      3409      3407      3399      3411
      3410      3407      3399      3411      3411      3399      3400      3415
      3415      3421      3418      3419      3415      3421      3418      3420
      3415      3421      3418      3422      3416      3415      3421      3418
      3417      3415      3421      3418      3418      3422      3423      3424
      3418      3422      3423      3425      3418      3422      3423      3426
      3419      3418      3422      3423      3420      3418      3422      3423
      3421      3418      3422      3423      3422      3423      3426      3427
      3422      3423      3426      3428      3422      3423      3426      3434
      3423      3426      3428      3429      3423      3426      3434      3435
      3423      3426      3434      3436      3423      3426      3434      3437
      3424      3423      3426      3427      3424      3423      3426      3428
      3424      3423      3426      3434      3425      3423      3426      3427
      3425      3423      3426      3428      3425      3423      3426      3434
      3426      3428      3429      3430      3426      3428      3429      3431
      3426      3434      3437      3438      3427      3426      3428      3429
      3427      3426      3434      3435      3427      3426      3434      3436
      3427      3426      3434      3437      3428      3426      3434      3435
      3428      3426      3434      3436      3428      3426      3434      3437
      3428      3429      3431      3432      3428      3429      3431      3433
      3428      3429      3431      3443      3429      3428      3426      3434
      3429      3431      3443      3444      3429      3431      3443      3445
      3429      3431      3443      3446      3430      3429      3431      3432
      3430      3429      3431      3433      3430      3429      3431      3443
      3431      3443      3446      3447      3431      3443      3446      3448
      3431      3443      3446      3449      3432      3431      3443      3444
      3432      3431      3443      3445      3432      3431      3443      3446
      3433      3431      3443      3444      3433      3431      3443      3445
      3433      3431      3443      3446      3434      3437      3438      3439
      3434      3437      3438      3440      3435      3434      3437      3438
      3436      3434      3437      3438      3437      3438      3440      3441
      3437      3438      3440      3442      3437      3438      3440      3490
      3438      3440      3490      3491      3438      3440      3490      3492
      3438      3440      3490      3493      3439      3438      3440      3441
      3439      3438      3440      3442      3439      3438      3440      3490
      3440      3490      3493      3494      3440      3490      3493      3495
      3440      3490      3493      3496      3441      3440      3490      3491
      3441      3440      3490      3492      3441      3440      3490      3493
      3442      3440      3490      3491      3442      3440      3490      3492
      3442      3440      3490      3493      3443      3446      3449      3450
      3443      3446      3449      3451      3443      3446      3449      3452
      3444      3443      3446      3447      3444      3443      3446      3448
      3444      3443      3446      3449      3445      3443      3446      3447
      3445      3443      3446      3448      3445      3443      3446      3449
      3446      3449      3452      3453      3446      3449      3452      3454
      3446      3449      3452      3455      3447      3446      3449      3450
      3447      3446      3449      3451      3447      3446      3449      3452
      3448      3446      3449      3450      3448      3446      3449      3451
      3448      3446      3449      3452      3449      3452      3455      3456
      3449      3452      3455      3457      3449      3452      3455      3458
      3450      3449      3452      3453      3450      3449      3452      3454
      3450      3449      3452      3455      3451      3449      3452      3453
      3451      3449      3452      3454      3451      3449      3452      3455
      3452      3455      3458      3459      3452      3455      3458      3460
      3452      3455      3458      3461      3453      3452      3455      3456
      3453      3452      3455      3457      3453      3452      3455      3458
      3454      3452      3455      3456      3454      3452      3455      3457
      3454      3452      3455      3458      3455      3458      3461      3462
      3455      3458      3461      3463      3456      3455      3458      3459
      3456      3455      3458      3460      3456      3455      3458      3461
      3457      3455      3458      3459      3457      3455      3458      3460
      3457      3455      3458      3461      3458      3461      3463      3464
      3458      3461      3463      3465      3459      3458      3461      3462
      3459      3458      3461      3463      3460      3458      3461      3462
      3460      3458      3461      3463      3461      3463      3465      3466
      3461      3463      3465      3467      3461      3463      3465      3468
      3462      3461      3463      3464      3462      3461      3463      3465
      3463      3465      3468      3469      3463      3465      3468      3470
      3463      3465      3468      3471      3464      3463      3465      3466
      3464      3463      3465      3467      3464      3463      3465      3468
      3465      3468      3471      3472      3465      3468      3471      3473
      3465      3468      3471      3474      3466      3465      3468      3469
      3466      3465      3468      3470      3466      3465      3468      3471
      3467      3465      3468      3469      3467      3465      3468      3470
      3467      3465      3468      3471      3468      3471      3474      3475
      3468      3471      3474      3476      3468      3471      3474      3477
      3469      3468      3471      3472      3469      3468      3471      3473
      3469      3468      3471      3474      3470      3468      3471      3472
      3470      3468      3471      3473      3470      3468      3471      3474
      3471      3474      3477      3478      3471      3474      3477      3479
      3471      3474      3477      3480      3472      3471      3474      3475
      3472      3471      3474      3476      3472      3471      3474      3477
      3473      3471      3474      3475      3473      3471      3474      3476
      3473      3471      3474      3477      3474      3477      3480      3481
      3474      3477      3480      3482      3474      3477      3480      3483
      3475      3474      3477      3478      3475      3474      3477      3479
      3475      3474      3477      3480      3476      3474      3477      3478
      3476      3474      3477      3479      3476      3474      3477      3480
      3477      3480      3483      3484      3477      3480      3483      3485
      3477      3480      3483      3486      3478      3477      3480      3481
      3478      3477      3480      3482      3478      3477      3480      3483
      3479      3477      3480      3481      3479      3477      3480      3482
      3479      3477      3480      3483      3480      3483      3486      3487
      3480      3483      3486      3488      3480      3483      3486      3489
      3481      3480      3483      3484      3481      3480      3483      3485
      3481      3480      3483      3486      3482      3480      3483      3484
      3482      3480      3483      3485      3482      3480      3483      3486
      3484      3483      3486      3487      3484      3483      3486      3488
      3484      3483      3486      3489      3485      3483      3486      3487
      3485      3483      3486      3488      3485      3483      3486      3489
      3490      3493      3496      3497      3490      3493      3496      3498
      3490      3493      3496      3499      3491      3490      3493      3494
      3491      3490      3493      3495      3491      3490      3493      3496
      3492      3490      3493      3494      3492      3490      3493      3495
      3492      3490      3493      3496      3493      3496      3499      3500
      3493      3496      3499      3501      3493      3496      3499      3502
      3494      3493      3496      3497      3494      3493      3496      3498
      3494      3493      3496      3499      3495      3493      3496      3497
      3495      3493      3496      3498      3495      3493      3496      3499
      3496      3499      3502      3503      3496      3499      3502      3504
      3496      3499      3502      3505      3497      3496      3499      3500
      3497      3496      3499      3501      3497      3496      3499      3502
      3498      3496      3499      3500      3498      3496      3499      3501
      3498      3496      3499      3502      3499      3502      3505      3506
      3499      3502      3505      3507      3499      3502      3505      3508
      3500      3499      3502      3503      3500      3499      3502      3504
      3500      3499      3502      3505      3501      3499      3502      3503
      3501      3499      3502      3504      3501      3499      3502      3505
      3502      3505      3508      3509      3502      3505      3508      3510
      3502      3505      3508      3511      3503      3502      3505      3506
      3503      3502      3505      3507      3503      3502      3505      3508
      3504      3502      3505      3506      3504      3502      3505      3507
      3504      3502      3505      3508      3505      3508      3511      3512
      3505      3508      3511      3513      3505      3508      3511      3514
      3506      3505      3508      3509      3506      3505      3508      3510
      3506      3505      3508      3511      3507      3505      3508      3509
      3507      3505      3508      3510      3507      3505      3508      3511
      3508      3511      3514      3515      3508      3511      3514      3516
      3508      3511      3514      3517      3509      3508      3511      3512
      3509      3508      3511      3513      3509      3508      3511      3514
      3510      3508      3511      3512      3510      3508      3511      3513
      3510      3508      3511      3514      3511      3514      3517      3518
      3511      3514      3517      3519      3511      3514      3517      3520
      3512      3511      3514      3515      3512      3511      3514      3516
      3512      3511      3514      3517      3513      3511      3514      3515
      3513      3511      3514      3516      3513      3511      3514      3517
      3514      3517      3520      3521      3514      3517      3520      3522
      3514      3517      3520      3523      3515      3514      3517      3518
      3515      3514      3517      3519      3515      3514      3517      3520
      3516      3514      3517      3518      3516      3514      3517      3519
      3516      3514      3517      3520      3517      3520      3523      3524
      3517      3520      3523      3525      3517      3520      3523      3526
      3518      3517      3520      3521      3518      3517      3520      3522
      3518      3517      3520      3523      3519      3517      3520      3521
      3519      3517      3520      3522      3519      3517      3520      3523
      3520      3523      3526      3527      3520      3523      3526      3528
      3520      3523      3526      3529      3521      3520      3523      3524
      3521      3520      3523      3525      3521      3520      3523      3526
      3522      3520      3523      3524      3522      3520      3523      3525
      3522      3520      3523      3526      3523      3526      3529      3530
      3523      3526      3529      3531      3523      3526      3529      3532
      3524      3523      3526      3527      3524      3523      3526      3528
      3524      3523      3526      3529      3525      3523      3526      3527
      3525      3523      3526      3528      3525      3523      3526      3529
      3527      3526      3529      3530      3527      3526      3529      3531
      3527      3526      3529      3532      3528      3526      3529      3530
      3528      3526      3529      3531      3528      3526      3529      3532
      3533      3534      3549      3550      3533      3534      3549      3551
      3533      3534      3549      3555      3534      3533      3537      3538
      3534      3533      3537      3539      3534      3533      3537      3540
      3534      3533      3541      3542      3534      3533      3541      3543
      3534      3533      3541      3544      3534      3533      3545      3546
      3534      3533      3545      3547      3534      3533      3545      3548
      3534      3549      3555      3552      3535      3534      3533      3537
      3535      3534      3533      3541      3535      3534      3533      3545
      3535      3534      3549      3550      3535      3534      3549      3551
      3535      3534      3549      3555      3536      3534      3533      3537
      3536      3534      3533      3541      3536      3534      3533      3545
      3536      3534      3549      3550      3536      3534      3549      3551
      3536      3534      3549      3555      3537      3533      3534      3549
      3537      3533      3541      3542      3537      3533      3541      3543
      3537      3533      3541      3544      3537      3533      3545      3546
      3537      3533      3545      3547      3537      3533      3545      3548
      3538      3537      3533      3541      3538      3537      3533      3545
      3539      3537      3533      3541      3539      3537      3533      3545
      3540      3537      3533      3541      3540      3537      3533      3545
      3541      3533      3534      3549      3541      3533      3545      3546
      3541      3533      3545      3547      3541      3533      3545      3548
      3542      3541      3533      3545      3543      3541      3533      3545
      3544      3541      3533      3545      3545      3533      3534      3549
      3549      3555      3552      3553      3549      3555      3552      3554
      3549      3555      3552      3556      3550      3549      3555      3552
      3551      3549      3555      3552      3552      3556      3557      3558
      3552      3556      3557      3559      3552      3556      3557      3560
      3553      3552      3556      3557      3554      3552      3556      3557
      3555      3552      3556      3557      3556      3557      3560      3561
      3556      3557      3560      3562      3556      3557      3560      3568
      3557      3560      3562      3563      3557      3560      3568      3569
      3557      3560      3568      3570      3557      3560      3568      3571
      3558      3557      3560      3561      3558      3557      3560      3562
      3558      3557      3560      3568      3559      3557      3560      3561
      3559      3557      3560      3562      3559      3557      3560      3568
      3560      3562      3563      3564      3560      3562      3563      3565
      3560      3568      3571      3572      3561      3560      3562      3563
      3561      3560      3568      3569      3561      3560      3568      3570
      3561      3560      3568      3571      3562      3560      3568      3569
      3562      3560      3568      3570      3562      3560      3568      3571
      3562      3563      3565      3566      3562      3563      3565      3567
      3562      3563      3565      3577      3563      3562      3560      3568
      3563      3565      3577      3578      3563      3565      3577      3579
      3563      3565      3577      3580      3564      3563      3565      3566
      3564      3563      3565      3567      3564      3563      3565      3577
      3565      3577      3580      3581      3565      3577      3580      3582
      3565      3577      3580      3583      3566      3565      3577      3578
      3566      3565      3577      3579      3566      3565      3577      3580
      3567      3565      3577      3578      3567      3565      3577      3579
      3567      3565      3577      3580      3568      3571      3572      3573
      3568      3571      3572      3574      3569      3568      3571      3572
      3570      3568      3571      3572      3571      3572      3574      3575
      3571      3572      3574      3576      3571      3572      3574      3624
      3572      3574      3624      3625      3572      3574      3624      3626
      3572      3574      3624      3627      3573      3572      3574      3575
      3573      3572      3574      3576      3573      3572      3574      3624
      3574      3624      3627      3628      3574      3624      3627      3629
      3574      3624      3627      3630      3575      3574      3624      3625
      3575      3574      3624      3626      3575      3574      3624      3627
      3576      3574      3624      3625      3576      3574      3624      3626
      3576      3574      3624      3627      3577      3580      3583      3584
      3577      3580      3583      3585      3577      3580      3583      3586
      3578      3577      3580      3581      3578      3577      3580      3582
      3578      3577      3580      3583      3579      3577      3580      3581
      3579      3577      3580      3582      3579      3577      3580      3583
      3580      3583      3586      3587      3580      3583      3586      3588
      3580      3583      3586      3589      3581      3580      3583      3584
      3581      3580      3583      3585      3581      3580      3583      3586
      3582      3580      3583      3584      3582      3580      3583      3585
      3582      3580      3583      3586      3583      3586      3589      3590
      3583      3586      3589      3591      3583      3586      3589      3592
      3584      3583      3586      3587      3584      3583      3586      3588
      3584      3583      3586      3589      3585      3583      3586      3587
      3585      3583      3586      3588      3585      3583      3586      3589
      3586      3589      3592      3593      3586      3589      3592      3594
      3586      3589      3592      3595      3587      3586      3589      3590
      3587      3586      3589      3591      3587      3586      3589      3592
      3588      3586      3589      3590      3588      3586      3589      3591
      3588      3586      3589      3592      3589      3592      3595      3596
      3589      3592      3595      3597      3590      3589      3592      3593
      3590      3589      3592      3594      3590      3589      3592      3595
      3591      3589      3592      3593      3591      3589      3592      3594
      3591      3589      3592      3595      3592      3595      3597      3598
      3592      3595      3597      3599      3593      3592      3595      3596
      3593      3592      3595      3597      3594      3592      3595      3596
      3594      3592      3595      3597      3595      3597      3599      3600
      3595      3597      3599      3601      3595      3597      3599      3602
      3596      3595      3597      3598      3596      3595      3597      3599
      3597      3599      3602      3603      3597      3599      3602      3604
      3597      3599      3602      3605      3598      3597      3599      3600
      3598      3597      3599      3601      3598      3597      3599      3602
      3599      3602      3605      3606      3599      3602      3605      3607
      3599      3602      3605      3608      3600      3599      3602      3603
      3600      3599      3602      3604      3600      3599      3602      3605
      3601      3599      3602      3603      3601      3599      3602      3604
      3601      3599      3602      3605      3602      3605      3608      3609
      3602      3605      3608      3610      3602      3605      3608      3611
      3603      3602      3605      3606      3603      3602      3605      3607
      3603      3602      3605      3608      3604      3602      3605      3606
      3604      3602      3605      3607      3604      3602      3605      3608
      3605      3608      3611      3612      3605      3608      3611      3613
      3605      3608      3611      3614      3606      3605      3608      3609
      3606      3605      3608      3610      3606      3605      3608      3611
      3607      3605      3608      3609      3607      3605      3608      3610
      3607      3605      3608      3611      3608      3611      3614      3615
      3608      3611      3614      3616      3608      3611      3614      3617
      3609      3608      3611      3612      3609      3608      3611      3613
      3609      3608      3611      3614      3610      3608      3611      3612
      3610      3608      3611      3613      3610      3608      3611      3614
      3611      3614      3617      3618      3611      3614      3617      3619
      3611      3614      3617      3620      3612      3611      3614      3615
      3612      3611      3614      3616      3612      3611      3614      3617
      3613      3611      3614      3615      3613      3611      3614      3616
      3613      3611      3614      3617      3614      3617      3620      3621
      3614      3617      3620      3622      3614      3617      3620      3623
      3615      3614      3617      3618      3615      3614      3617      3619
      3615      3614      3617      3620      3616      3614      3617      3618
      3616      3614      3617      3619      3616      3614      3617      3620
      3618      3617      3620      3621      3618      3617      3620      3622
      3618      3617      3620      3623      3619      3617      3620      3621
      3619      3617      3620      3622      3619      3617      3620      3623
      3624      3627      3630      3631      3624      3627      3630      3632
      3624      3627      3630      3633      3625      3624      3627      3628
      3625      3624      3627      3629      3625      3624      3627      3630
      3626      3624      3627      3628      3626      3624      3627      3629
      3626      3624      3627      3630      3627      3630      3633      3634
      3627      3630      3633      3635      3627      3630      3633      3636
      3628      3627      3630      3631      3628      3627      3630      3632
      3628      3627      3630      3633      3629      3627      3630      3631
      3629      3627      3630      3632      3629      3627      3630      3633
      3630      3633      3636      3637      3630      3633      3636      3638
      3630      3633      3636      3639      3631      3630      3633      3634
      3631      3630      3633      3635      3631      3630      3633      3636
      3632      3630      3633      3634      3632      3630      3633      3635
      3632      3630      3633      3636      3633      3636      3639      3640
      3633      3636      3639      3641      3633      3636      3639      3642
      3634      3633      3636      3637      3634      3633      3636      3638
      3634      3633      3636      3639      3635      3633      3636      3637
      3635      3633      3636      3638      3635      3633      3636      3639
      3636      3639      3642      3643      3636      3639      3642      3644
      3636      3639      3642      3645      3637      3636      3639      3640
      3637      3636      3639      3641      3637      3636      3639      3642
      3638      3636      3639      3640      3638      3636      3639      3641
      3638      3636      3639      3642      3639      3642      3645      3646
      3639      3642      3645      3647      3639      3642      3645      3648
      3640      3639      3642      3643      3640      3639      3642      3644
      3640      3639      3642      3645      3641      3639      3642      3643
      3641      3639      3642      3644      3641      3639      3642      3645
      3642      3645      3648      3649      3642      3645      3648      3650
      3642      3645      3648      3651      3643      3642      3645      3646
      3643      3642      3645      3647      3643      3642      3645      3648
      3644      3642      3645      3646      3644      3642      3645      3647
      3644      3642      3645      3648      3645      3648      3651      3652
      3645      3648      3651      3653      3645      3648      3651      3654
      3646      3645      3648      3649      3646      3645      3648      3650
      3646      3645      3648      3651      3647      3645      3648      3649
      3647      3645      3648      3650      3647      3645      3648      3651
      3648      3651      3654      3655      3648      3651      3654      3656
      3648      3651      3654      3657      3649      3648      3651      3652
      3649      3648      3651      3653      3649      3648      3651      3654
      3650      3648      3651      3652      3650      3648      3651      3653
      3650      3648      3651      3654      3651      3654      3657      3658
      3651      3654      3657      3659      3651      3654      3657      3660
      3652      3651      3654      3655      3652      3651      3654      3656
      3652      3651      3654      3657      3653      3651      3654      3655
      3653      3651      3654      3656      3653      3651      3654      3657
      3654      3657      3660      3661      3654      3657      3660      3662
      3654      3657      3660      3663      3655      3654      3657      3658
      3655      3654      3657      3659      3655      3654      3657      3660
      3656      3654      3657      3658      3656      3654      3657      3659
      3656      3654      3657      3660      3657      3660      3663      3664
      3657      3660      3663      3665      3657      3660      3663      3666
      3658      3657      3660      3661      3658      3657      3660      3662
      3658      3657      3660      3663      3659      3657      3660      3661
      3659      3657      3660      3662      3659      3657      3660      3663
      3661      3660      3663      3664      3661      3660      3663      3665
      3661      3660      3663      3666      3662      3660      3663      3664
      3662      3660      3663      3665      3662      3660      3663      3666
      3667      3671      3673      3674      3667      3671      3673      3675
      3667      3671      3676      3677      3667      3671      3676      3678
      3667      3671      3676      3682      3668      3667      3671      3672
      3668      3667      3671      3673      3668      3667      3671      3676
      3669      3667      3671      3672      3669      3667      3671      3673
      3669      3667      3671      3676      3670      3667      3671      3672
      3670      3667      3671      3673      3670      3667      3671      3676
      3671      3676      3682      3679      3672      3671      3673      3674
      3672      3671      3673      3675      3672      3671      3676      3677
      3672      3671      3676      3678      3672      3671      3676      3682
      3673      3671      3676      3677      3673      3671      3676      3678
      3673      3671      3676      3682      3674      3673      3671      3676
      3675      3673      3671      3676      3676      3682      3679      3680
      3676      3682      3679      3681      3676      3682      3679      3683
      3677      3676      3682      3679      3678      3676      3682      3679
      3679      3683      3684      3685      3679      3683      3684      3686
      3679      3683      3684      3687      3680      3679      3683      3684
      3681      3679      3683      3684      3682      3679      3683      3684
      3683      3684      3687      3688      3683      3684      3687      3689
      3683      3684      3687      3695      3684      3687      3689      3690
      3684      3687      3695      3696      3684      3687      3695      3697
      3684      3687      3695      3698      3685      3684      3687      3688
      3685      3684      3687      3689      3685      3684      3687      3695
      3686      3684      3687      3688      3686      3684      3687      3689
      3686      3684      3687      3695      3687      3689      3690      3691
      3687      3689      3690      3692      3687      3695      3698      3699
      3688      3687      3689      3690      3688      3687      3695      3696
      3688      3687      3695      3697      3688      3687      3695      3698
      3689      3687      3695      3696      3689      3687      3695      3697
      3689      3687      3695      3698      3689      3690      3692      3693
      3689      3690      3692      3694      3689      3690      3692      3704
      3690      3689      3687      3695      3690      3692      3704      3705
      3690      3692      3704      3706      3690      3692      3704      3707
      3691      3690      3692      3693      3691      3690      3692      3694
      3691      3690      3692      3704      3692      3704      3707      3708
      3692      3704      3707      3709      3692      3704      3707      3710
      3693      3692      3704      3705      3693      3692      3704      3706
      3693      3692      3704      3707      3694      3692      3704      3705
      3694      3692      3704      3706      3694      3692      3704      3707
      3695      3698      3699      3700      3695      3698      3699      3701
      3696      3695      3698      3699      3697      3695      3698      3699
      3698      3699      3701      3702      3698      3699      3701      3703
      3698      3699      3701      3751      3699      3701      3751      3752
      3699      3701      3751      3753      3699      3701      3751      3754
      3700      3699      3701      3702      3700      3699      3701      3703
      3700      3699      3701      3751      3701      3751      3754      3755
      3701      3751      3754      3756      3701      3751      3754      3757
      3702      3701      3751      3752      3702      3701      3751      3753
      3702      3701      3751      3754      3703      3701      3751      3752
      3703      3701      3751      3753      3703      3701      3751      3754
      3704      3707      3710      3711      3704      3707      3710      3712
      3704      3707      3710      3713      3705      3704      3707      3708
      3705      3704      3707      3709      3705      3704      3707      3710
      3706      3704      3707      3708      3706      3704      3707      3709
      3706      3704      3707      3710      3707      3710      3713      3714
      3707      3710      3713      3715      3707      3710      3713      3716
      3708      3707      3710      3711      3708      3707      3710      3712
      3708      3707      3710      3713      3709      3707      3710      3711
      3709      3707      3710      3712      3709      3707      3710      3713
      3710      3713      3716      3717      3710      3713      3716      3718
      3710      3713      3716      3719      3711      3710      3713      3714
      3711      3710      3713      3715      3711      3710      3713      3716
      3712      3710      3713      3714      3712      3710      3713      3715
      3712      3710      3713      3716      3713      3716      3719      3720
      3713      3716      3719      3721      3713      3716      3719      3722
      3714      3713      3716      3717      3714      3713      3716      3718
      3714      3713      3716      3719      3715      3713      3716      3717
      3715      3713      3716      3718      3715      3713      3716      3719
      3716      3719      3722      3723      3716      3719      3722      3724
      3717      3716      3719      3720      3717      3716      3719      3721
      3717      3716      3719      3722      3718      3716      3719      3720
      3718      3716      3719      3721      3718      3716      3719      3722
      3719      3722      3724      3725      3719      3722      3724      3726
      3720      3719      3722      3723      3720      3719      3722      3724
      3721      3719      3722      3723      3721      3719      3722      3724
      3722      3724      3726      3727      3722      3724      3726      3728
      3722      3724      3726      3729      3723      3722      3724      3725
      3723      3722      3724      3726      3724      3726      3729      3730
      3724      3726      3729      3731      3724      3726      3729      3732
      3725      3724      3726      3727      3725      3724      3726      3728
      3725      3724      3726      3729      3726      3729      3732      3733
      3726      3729      3732      3734      3726      3729      3732      3735
      3727      3726      3729      3730      3727      3726      3729      3731
      3727      3726      3729      3732      3728      3726      3729      3730
      3728      3726      3729      3731      3728      3726      3729      3732
      3729      3732      3735      3736      3729      3732      3735      3737
      3729      3732      3735      3738      3730      3729      3732      3733
      3730      3729      3732      3734      3730      3729      3732      3735
      3731      3729      3732      3733      3731      3729      3732      3734
      3731      3729      3732      3735      3732      3735      3738      3739
      3732      3735      3738      3740      3732      3735      3738      3741
      3733      3732      3735      3736      3733      3732      3735      3737
      3733      3732      3735      3738      3734      3732      3735      3736
      3734      3732      3735      3737      3734      3732      3735      3738
      3735      3738      3741      3742      3735      3738      3741      3743
      3735      3738      3741      3744      3736      3735      3738      3739
      3736      3735      3738      3740      3736      3735      3738      3741
      3737      3735      3738      3739      3737      3735      3738      3740
      3737      3735      3738      3741      3738      3741      3744      3745
      3738      3741      3744      3746      3738      3741      3744      3747
      3739      3738      3741      3742      3739      3738      3741      3743
      3739      3738      3741      3744      3740      3738      3741      3742
      3740      3738      3741      3743      3740      3738      3741      3744
      3741      3744      3747      3748      3741      3744      3747      3749
      3741      3744      3747      3750      3742      3741      3744      3745
      3742      3741      3744      3746      3742      3741      3744      3747
      3743      3741      3744      3745      3743      3741      3744      3746
      3743      3741      3744      3747      3745      3744      3747      3748
      3745      3744      3747      3749      3745      3744      3747      3750
      3746      3744      3747      3748      3746      3744      3747      3749
      3746      3744      3747      3750      3751      3754      3757      3758
      3751      3754      3757      3759      3751      3754      3757      3760
      3752      3751      3754      3755      3752      3751      3754      3756
      3752      3751      3754      3757      3753      3751      3754      3755
      3753      3751      3754      3756      3753      3751      3754      3757
      3754      3757      3760      3761      3754      3757      3760      3762
      3754      3757      3760      3763      3755      3754      3757      3758
      3755      3754      3757      3759      3755      3754      3757      3760
      3756      3754      3757      3758      3756      3754      3757      3759
      3756      3754      3757      3760      3757      3760      3763      3764
      3757      3760      3763      3765      3757      3760      3763      3766
      3758      3757      3760      3761      3758      3757      3760      3762
      3758      3757      3760      3763      3759      3757      3760      3761
      3759      3757      3760      3762      3759      3757      3760      3763
      3760      3763      3766      3767      3760      3763      3766      3768
      3760      3763      3766      3769      3761      3760      3763      3764
      3761      3760      3763      3765      3761      3760      3763      3766
      3762      3760      3763      3764      3762      3760      3763      3765
      3762      3760      3763      3766      3763      3766      3769      3770
      3763      3766      3769      3771      3763      3766      3769      3772
      3764      3763      3766      3767      3764      3763      3766      3768
      3764      3763      3766      3769      3765      3763      3766      3767
      3765      3763      3766      3768      3765      3763      3766      3769
      3766      3769      3772      3773      3766      3769      3772      3774
      3766      3769      3772      3775      3767      3766      3769      3770
      3767      3766      3769      3771      3767      3766      3769      3772
      3768      3766      3769      3770      3768      3766      3769      3771
      3768      3766      3769      3772      3769      3772      3775      3776
      3769      3772      3775      3777      3769      3772      3775      3778
      3770      3769      3772      3773      3770      3769      3772      3774
      3770      3769      3772      3775      3771      3769      3772      3773
      3771      3769      3772      3774      3771      3769      3772      3775
      3772      3775      3778      3779      3772      3775      3778      3780
      3772      3775      3778      3781      3773      3772      3775      3776
      3773      3772      3775      3777      3773      3772      3775      3778
      3774      3772      3775      3776      3774      3772      3775      3777
      3774      3772      3775      3778      3775      3778      3781      3782
      3775      3778      3781      3783      3775      3778      3781      3784
      3776      3775      3778      3779      3776      3775      3778      3780
      3776      3775      3778      3781      3777      3775      3778      3779
      3777      3775      3778      3780      3777      3775      3778      3781
      3778      3781      3784      3785      3778      3781      3784      3786
      3778      3781      3784      3787      3779      3778      3781      3782
      3779      3778      3781      3783      3779      3778      3781      3784
      3780      3778      3781      3782      3780      3778      3781      3783
      3780      3778      3781      3784      3781      3784      3787      3788
      3781      3784      3787      3789      3781      3784      3787      3790
      3782      3781      3784      3785      3782      3781      3784      3786
      3782      3781      3784      3787      3783      3781      3784      3785
      3783      3781      3784      3786      3783      3781      3784      3787
      3784      3787      3790      3791      3784      3787      3790      3792
      3784      3787      3790      3793      3785      3784      3787      3788
      3785      3784      3787      3789      3785      3784      3787      3790
      3786      3784      3787      3788      3786      3784      3787      3789
      3786      3784      3787      3790      3788      3787      3790      3791
      3788      3787      3790      3792      3788      3787      3790      3793
      3789      3787      3790      3791      3789      3787      3790      3792
      3789      3787      3790      3793      3794      3795      3810      3811
      3794      3795      3810      3812      3794      3795      3810      3816
      3795      3794      3798      3799      3795      3794      3798      3800
      3795      3794      3798      3801      3795      3794      3802      3803
      3795      3794      3802      3804      3795      3794      3802      3805
      3795      3794      3806      3807      3795      3794      3806      3808
      3795      3794      3806      3809      3795      3810      3816      3813
      3796      3795      3794      3798      3796      3795      3794      3802
      3796      3795      3794      3806      3796      3795      3810      3811
      3796      3795      3810      3812      3796      3795      3810      3816
      3797      3795      3794      3798      3797      3795      3794      3802
      3797      3795      3794      3806      3797      3795      3810      3811
      3797      3795      3810      3812      3797      3795      3810      3816
      3798      3794      3795      3810      3798      3794      3802      3803
      3798      3794      3802      3804      3798      3794      3802      3805
      3798      3794      3806      3807      3798      3794      3806      3808
      3798      3794      3806      3809      3799      3798      3794      3802
      3799      3798      3794      3806      3800      3798      3794      3802
      3800      3798      3794      3806      3801      3798      3794      3802
      3801      3798      3794      3806      3802      3794      3795      3810
      3802      3794      3806      3807      3802      3794      3806      3808
      3802      3794      3806      3809      3803      3802      3794      3806
      3804      3802      3794      3806      3805      3802      3794      3806
      3806      3794      3795      3810      3810      3816      3813      3814
      3810      3816      3813      3815      3810      3816      3813      3817
      3811      3810      3816      3813      3812      3810      3816      3813
      3813      3817      3818      3819      3813      3817      3818      3820
      3813      3817      3818      3821      3814      3813      3817      3818
      3815      3813      3817      3818      3816      3813      3817      3818
      3817      3818      3821      3822      3817      3818      3821      3823
      3817      3818      3821      3829      3818      3821      3823      3824
      3818      3821      3829      3830      3818      3821      3829      3831
      3818      3821      3829      3832      3819      3818      3821      3822
      3819      3818      3821      3823      3819      3818      3821      3829
      3820      3818      3821      3822      3820      3818      3821      3823
      3820      3818      3821      3829      3821      3823      3824      3825
      3821      3823      3824      3826      3821      3829      3832      3833
      3822      3821      3823      3824      3822      3821      3829      3830
      3822      3821      3829      3831      3822      3821      3829      3832
      3823      3821      3829      3830      3823      3821      3829      3831
      3823      3821      3829      3832      3823      3824      3826      3827
      3823      3824      3826      3828      3823      3824      3826      3838
      3824      3823      3821      3829      3824      3826      3838      3839
      3824      3826      3838      3840      3824      3826      3838      3841
      3825      3824      3826      3827      3825      3824      3826      3828
      3825      3824      3826      3838      3826      3838      3841      3842
      3826      3838      3841      3843      3826      3838      3841      3844
      3827      3826      3838      3839      3827      3826      3838      3840
      3827      3826      3838      3841      3828      3826      3838      3839
      3828      3826      3838      3840      3828      3826      3838      3841
      3829      3832      3833      3834      3829      3832      3833      3835
      3830      3829      3832      3833      3831      3829      3832      3833
      3832      3833      3835      3836      3832      3833      3835      3837
      3832      3833      3835      3885      3833      3835      3885      3886
      3833      3835      3885      3887      3833      3835      3885      3888
      3834      3833      3835      3836      3834      3833      3835      3837
      3834      3833      3835      3885      3835      3885      3888      3889
      3835      3885      3888      3890      3835      3885      3888      3891
      3836      3835      3885      3886      3836      3835      3885      3887
      3836      3835      3885      3888      3837      3835      3885      3886
      3837      3835      3885      3887      3837      3835      3885      3888
      3838      3841      3844      3845      3838      3841      3844      3846
      3838      3841      3844      3847      3839      3838      3841      3842
      3839      3838      3841      3843      3839      3838      3841      3844
      3840      3838      3841      3842      3840      3838      3841      3843
      3840      3838      3841      3844      3841      3844      3847      3848
      3841      3844      3847      3849      3841      3844      3847      3850
      3842      3841      3844      3845      3842      3841      3844      3846
      3842      3841      3844      3847      3843      3841      3844      3845
      3843      3841      3844      3846      3843      3841      3844      3847
      3844      3847      3850      3851      3844      3847      3850      3852
      3844      3847      3850      3853      3845      3844      3847      3848
      3845      3844      3847      3849      3845      3844      3847      3850
      3846      3844      3847      3848      3846      3844      3847      3849
      3846      3844      3847      3850      3847      3850      3853      3854
      3847      3850      3853      3855      3847      3850      3853      3856
      3848      3847      3850      3851      3848      3847      3850      3852
      3848      3847      3850      3853      3849      3847      3850      3851
      3849      3847      3850      3852      3849      3847      3850      3853
      3850      3853      3856      3857      3850      3853      3856      3858
      3851      3850      3853      3854      3851      3850      3853      3855
      3851      3850      3853      3856      3852      3850      3853      3854
      3852      3850      3853      3855      3852      3850      3853      3856
      3853      3856      3858      3859      3853      3856      3858      3860
      3854      3853      3856      3857      3854      3853      3856      3858
      3855      3853      3856      3857      3855      3853      3856      3858
      3856      3858      3860      3861      3856      3858      3860      3862
      3856      3858      3860      3863      3857      3856      3858      3859
      3857      3856      3858      3860      3858      3860      3863      3864
      3858      3860      3863      3865      3858      3860      3863      3866
      3859      3858      3860      3861      3859      3858      3860      3862
      3859      3858      3860      3863      3860      3863      3866      3867
      3860      3863      3866      3868      3860      3863      3866      3869
      3861      3860      3863      3864      3861      3860      3863      3865
      3861      3860      3863      3866      3862      3860      3863      3864
      3862      3860      3863      3865      3862      3860      3863      3866
      3863      3866      3869      3870      3863      3866      3869      3871
      3863      3866      3869      3872      3864      3863      3866      3867
      3864      3863      3866      3868      3864      3863      3866      3869
      3865      3863      3866      3867      3865      3863      3866      3868
      3865      3863      3866      3869      3866      3869      3872      3873
      3866      3869      3872      3874      3866      3869      3872      3875
      3867      3866      3869      3870      3867      3866      3869      3871
      3867      3866      3869      3872      3868      3866      3869      3870
      3868      3866      3869      3871      3868      3866      3869      3872
      3869      3872      3875      3876      3869      3872      3875      3877
      3869      3872      3875      3878      3870      3869      3872      3873
      3870      3869      3872      3874      3870      3869      3872      3875
      3871      3869      3872      3873      3871      3869      3872      3874
      3871      3869      3872      3875      3872      3875      3878      3879
      3872      3875      3878      3880      3872      3875      3878      3881
      3873      3872      3875      3876      3873      3872      3875      3877
      3873      3872      3875      3878      3874      3872      3875      3876
      3874      3872      3875      3877      3874      3872      3875      3878
      3875      3878      3881      3882      3875      3878      3881      3883
      3875      3878      3881      3884      3876      3875      3878      3879
      3876      3875      3878      3880      3876      3875      3878      3881
      3877      3875      3878      3879      3877      3875      3878      3880
      3877      3875      3878      3881      3879      3878      3881      3882
      3879      3878      3881      3883      3879      3878      3881      3884
      3880      3878      3881      3882      3880      3878      3881      3883
      3880      3878      3881      3884      3885      3888      3891      3892
      3885      3888      3891      3893      3885      3888      3891      3894
      3886      3885      3888      3889      3886      3885      3888      3890
      3886      3885      3888      3891      3887      3885      3888      3889
      3887      3885      3888      3890      3887      3885      3888      3891
      3888      3891      3894      3895      3888      3891      3894      3896
      3888      3891      3894      3897      3889      3888      3891      3892
      3889      3888      3891      3893      3889      3888      3891      3894
      3890      3888      3891      3892      3890      3888      3891      3893
      3890      3888      3891      3894      3891      3894      3897      3898
      3891      3894      3897      3899      3891      3894      3897      3900
      3892      3891      3894      3895      3892      3891      3894      3896
      3892      3891      3894      3897      3893      3891      3894      3895
      3893      3891      3894      3896      3893      3891      3894      3897
      3894      3897      3900      3901      3894      3897      3900      3902
      3894      3897      3900      3903      3895      3894      3897      3898
      3895      3894      3897      3899      3895      3894      3897      3900
      3896      3894      3897      3898      3896      3894      3897      3899
      3896      3894      3897      3900      3897      3900      3903      3904
      3897      3900      3903      3905      3897      3900      3903      3906
      3898      3897      3900      3901      3898      3897      3900      3902
      3898      3897      3900      3903      3899      3897      3900      3901
      3899      3897      3900      3902      3899      3897      3900      3903
      3900      3903      3906      3907      3900      3903      3906      3908
      3900      3903      3906      3909      3901      3900      3903      3904
      3901      3900      3903      3905      3901      3900      3903      3906
      3902      3900      3903      3904      3902      3900      3903      3905
      3902      3900      3903      3906      3903      3906      3909      3910
      3903      3906      3909      3911      3903      3906      3909      3912
      3904      3903      3906      3907      3904      3903      3906      3908
      3904      3903      3906      3909      3905      3903      3906      3907
      3905      3903      3906      3908      3905      3903      3906      3909
      3906      3909      3912      3913      3906      3909      3912      3914
      3906      3909      3912      3915      3907      3906      3909      3910
      3907      3906      3909      3911      3907      3906      3909      3912
      3908      3906      3909      3910      3908      3906      3909      3911
      3908      3906      3909      3912      3909      3912      3915      3916
      3909      3912      3915      3917      3909      3912      3915      3918
      3910      3909      3912      3913      3910      3909      3912      3914
      3910      3909      3912      3915      3911      3909      3912      3913
      3911      3909      3912      3914      3911      3909      3912      3915
      3912      3915      3918      3919      3912      3915      3918      3920
      3912      3915      3918      3921      3913      3912      3915      3916
      3913      3912      3915      3917      3913      3912      3915      3918
      3914      3912      3915      3916      3914      3912      3915      3917
      3914      3912      3915      3918      3915      3918      3921      3922
      3915      3918      3921      3923      3915      3918      3921      3924
      3916      3915      3918      3919      3916      3915      3918      3920
      3916      3915      3918      3921      3917      3915      3918      3919
      3917      3915      3918      3920      3917      3915      3918      3921
      3918      3921      3924      3925      3918      3921      3924      3926
      3918      3921      3924      3927      3919      3918      3921      3922
      3919      3918      3921      3923      3919      3918      3921      3924
      3920      3918      3921      3922      3920      3918      3921      3923
      3920      3918      3921      3924      3922      3921      3924      3925
      3922      3921      3924      3926      3922      3921      3924      3927
      3923      3921      3924      3925      3923      3921      3924      3926
      3923      3921      3924      3927      3928      3929      3944      3945
      3928      3929      3944      3946      3928      3929      3944      3950
      3929      3928      3932      3933      3929      3928      3932      3934
      3929      3928      3932      3935      3929      3928      3936      3937
      3929      3928      3936      3938      3929      3928      3936      3939
      3929      3928      3940      3941      3929      3928      3940      3942
      3929      3928      3940      3943      3929      3944      3950      3947
      3930      3929      3928      3932      3930      3929      3928      3936
      3930      3929      3928      3940      3930      3929      3944      3945
      3930      3929      3944      3946      3930      3929      3944      3950
      3931      3929      3928      3932      3931      3929      3928      3936
      3931      3929      3928      3940      3931      3929      3944      3945
      3931      3929      3944      3946      3931      3929      3944      3950
      3932      3928      3929      3944      3932      3928      3936      3937
      3932      3928      3936      3938      3932      3928      3936      3939
      3932      3928      3940      3941      3932      3928      3940      3942
      3932      3928      3940      3943      3933      3932      3928      3936
      3933      3932      3928      3940      3934      3932      3928      3936
      3934      3932      3928      3940      3935      3932      3928      3936
      3935      3932      3928      3940      3936      3928      3929      3944
      3936      3928      3940      3941      3936      3928      3940      3942
      3936      3928      3940      3943      3937      3936      3928      3940
      3938      3936      3928      3940      3939      3936      3928      3940
      3940      3928      3929      3944      3944      3950      3947      3948
      3944      3950      3947      3949      3944      3950      3947      3951
      3945      3944      3950      3947      3946      3944      3950      3947
      3947      3951      3952      3953      3947      3951      3952      3954
      3947      3951      3952      3955      3948      3947      3951      3952
      3949      3947      3951      3952      3950      3947      3951      3952
      3951      3952      3955      3956      3951      3952      3955      3957
      3951      3952      3955      3963      3952      3955      3957      3958
      3952      3955      3963      3964      3952      3955      3963      3965
      3952      3955      3963      3966      3953      3952      3955      3956
      3953      3952      3955      3957      3953      3952      3955      3963
      3954      3952      3955      3956      3954      3952      3955      3957
      3954      3952      3955      3963      3955      3957      3958      3959
      3955      3957      3958      3960      3955      3963      3966      3967
      3956      3955      3957      3958      3956      3955      3963      3964
      3956      3955      3963      3965      3956      3955      3963      3966
      3957      3955      3963      3964      3957      3955      3963      3965
      3957      3955      3963      3966      3957      3958      3960      3961
      3957      3958      3960      3962      3957      3958      3960      3972
      3958      3957      3955      3963      3958      3960      3972      3973
      3958      3960      3972      3974      3958      3960      3972      3975
      3959      3958      3960      3961      3959      3958      3960      3962
      3959      3958      3960      3972      3960      3972      3975      3976
      3960      3972      3975      3977      3960      3972      3975      3978
      3961      3960      3972      3973      3961      3960      3972      3974
      3961      3960      3972      3975      3962      3960      3972      3973
      3962      3960      3972      3974      3962      3960      3972      3975
      3963      3966      3967      3968      3963      3966      3967      3969
      3964      3963      3966      3967      3965      3963      3966      3967
      3966      3967      3969      3970      3966      3967      3969      3971
      3966      3967      3969      4019      3967      3969      4019      4020
      3967      3969      4019      4021      3967      3969      4019      4022
      3968      3967      3969      3970      3968      3967      3969      3971
      3968      3967      3969      4019      3969      4019      4022      4023
      3969      4019      4022      4024      3969      4019      4022      4025
      3970      3969      4019      4020      3970      3969      4019      4021
      3970      3969      4019      4022      3971      3969      4019      4020
      3971      3969      4019      4021      3971      3969      4019      4022
      3972      3975      3978      3979      3972      3975      3978      3980
      3972      3975      3978      3981      3973      3972      3975      3976
      3973      3972      3975      3977      3973      3972      3975      3978
      3974      3972      3975      3976      3974      3972      3975      3977
      3974      3972      3975      3978      3975      3978      3981      3982
      3975      3978      3981      3983      3975      3978      3981      3984
      3976      3975      3978      3979      3976      3975      3978      3980
      3976      3975      3978      3981      3977      3975      3978      3979
      3977      3975      3978      3980      3977      3975      3978      3981
      3978      3981      3984      3985      3978      3981      3984      3986
      3978      3981      3984      3987      3979      3978      3981      3982
      3979      3978      3981      3983      3979      3978      3981      3984
      3980      3978      3981      3982      3980      3978      3981      3983
      3980      3978      3981      3984      3981      3984      3987      3988
      3981      3984      3987      3989      3981      3984      3987      3990
      3982      3981      3984      3985      3982      3981      3984      3986
      3982      3981      3984      3987      3983      3981      3984      3985
      3983      3981      3984      3986      3983      3981      3984      3987
      3984      3987      3990      3991      3984      3987      3990      3992
      3985      3984      3987      3988      3985      3984      3987      3989
      3985      3984      3987      3990      3986      3984      3987      3988
      3986      3984      3987      3989      3986      3984      3987      3990
      3987      3990      3992      3993      3987      3990      3992      3994
      3988      3987      3990      3991      3988      3987      3990      3992
      3989      3987      3990      3991      3989      3987      3990      3992
      3990      3992      3994      3995      3990      3992      3994      3996
      3990      3992      3994      3997      3991      3990      3992      3993
      3991      3990      3992      3994      3992      3994      3997      3998
      3992      3994      3997      3999      3992      3994      3997      4000
      3993      3992      3994      3995      3993      3992      3994      3996
      3993      3992      3994      3997      3994      3997      4000      4001
      3994      3997      4000      4002      3994      3997      4000      4003
      3995      3994      3997      3998      3995      3994      3997      3999
      3995      3994      3997      4000      3996      3994      3997      3998
      3996      3994      3997      3999      3996      3994      3997      4000
      3997      4000      4003      4004      3997      4000      4003      4005
      3997      4000      4003      4006      3998      3997      4000      4001
      3998      3997      4000      4002      3998      3997      4000      4003
      3999      3997      4000      4001      3999      3997      4000      4002
      3999      3997      4000      4003      4000      4003      4006      4007
      4000      4003      4006      4008      4000      4003      4006      4009
      4001      4000      4003      4004      4001      4000      4003      4005
      4001      4000      4003      4006      4002      4000      4003      4004
      4002      4000      4003      4005      4002      4000      4003      4006
      4003      4006      4009      4010      4003      4006      4009      4011
      4003      4006      4009      4012      4004      4003      4006      4007
      4004      4003      4006      4008      4004      4003      4006      4009
      4005      4003      4006      4007      4005      4003      4006      4008
      4005      4003      4006      4009      4006      4009      4012      4013
      4006      4009      4012      4014      4006      4009      4012      4015
      4007      4006      4009      4010      4007      4006      4009      4011
      4007      4006      4009      4012      4008      4006      4009      4010
      4008      4006      4009      4011      4008      4006      4009      4012
      4009      4012      4015      4016      4009      4012      4015      4017
      4009      4012      4015      4018      4010      4009      4012      4013
      4010      4009      4012      4014      4010      4009      4012      4015
      4011      4009      4012      4013      4011      4009      4012      4014
      4011      4009      4012      4015      4013      4012      4015      4016
      4013      4012      4015      4017      4013      4012      4015      4018
      4014      4012      4015      4016      4014      4012      4015      4017
      4014      4012      4015      4018      4019      4022      4025      4026
      4019      4022      4025      4027      4019      4022      4025      4028
      4020      4019      4022      4023      4020      4019      4022      4024
      4020      4019      4022      4025      4021      4019      4022      4023
      4021      4019      4022      4024      4021      4019      4022      4025
      4022      4025      4028      4029      4022      4025      4028      4030
      4022      4025      4028      4031      4023      4022      4025      4026
      4023      4022      4025      4027      4023      4022      4025      4028
      4024      4022      4025      4026      4024      4022      4025      4027
      4024      4022      4025      4028      4025      4028      4031      4032
      4025      4028      4031      4033      4025      4028      4031      4034
      4026      4025      4028      4029      4026      4025      4028      4030
      4026      4025      4028      4031      4027      4025      4028      4029
      4027      4025      4028      4030      4027      4025      4028      4031
      4028      4031      4034      4035      4028      4031      4034      4036
      4028      4031      4034      4037      4029      4028      4031      4032
      4029      4028      4031      4033      4029      4028      4031      4034
      4030      4028      4031      4032      4030      4028      4031      4033
      4030      4028      4031      4034      4031      4034      4037      4038
      4031      4034      4037      4039      4031      4034      4037      4040
      4032      4031      4034      4035      4032      4031      4034      4036
      4032      4031      4034      4037      4033      4031      4034      4035
      4033      4031      4034      4036      4033      4031      4034      4037
      4034      4037      4040      4041      4034      4037      4040      4042
      4034      4037      4040      4043      4035      4034      4037      4038
      4035      4034      4037      4039      4035      4034      4037      4040
      4036      4034      4037      4038      4036      4034      4037      4039
      4036      4034      4037      4040      4037      4040      4043      4044
      4037      4040      4043      4045      4037      4040      4043      4046
      4038      4037      4040      4041      4038      4037      4040      4042
      4038      4037      4040      4043      4039      4037      4040      4041
      4039      4037      4040      4042      4039      4037      4040      4043
      4040      4043      4046      4047      4040      4043      4046      4048
      4040      4043      4046      4049      4041      4040      4043      4044
      4041      4040      4043      4045      4041      4040      4043      4046
      4042      4040      4043      4044      4042      4040      4043      4045
      4042      4040      4043      4046      4043      4046      4049      4050
      4043      4046      4049      4051      4043      4046      4049      4052
      4044      4043      4046      4047      4044      4043      4046      4048
      4044      4043      4046      4049      4045      4043      4046      4047
      4045      4043      4046      4048      4045      4043      4046      4049
      4046      4049      4052      4053      4046      4049      4052      4054
      4046      4049      4052      4055      4047      4046      4049      4050
      4047      4046      4049      4051      4047      4046      4049      4052
      4048      4046      4049      4050      4048      4046      4049      4051
      4048      4046      4049      4052      4049      4052      4055      4056
      4049      4052      4055      4057      4049      4052      4055      4058
      4050      4049      4052      4053      4050      4049      4052      4054
      4050      4049      4052      4055      4051      4049      4052      4053
      4051      4049      4052      4054      4051      4049      4052      4055
      4052      4055      4058      4059      4052      4055      4058      4060
      4052      4055      4058      4061      4053      4052      4055      4056
      4053      4052      4055      4057      4053      4052      4055      4058
      4054      4052      4055      4056      4054      4052      4055      4057
      4054      4052      4055      4058      4056      4055      4058      4059
      4056      4055      4058      4060      4056      4055      4058      4061
      4057      4055      4058      4059      4057      4055      4058      4060
      4057      4055      4058      4061      4062      4066      4068      4069
      4062      4066      4068      4070      4062      4066      4071      4072
      4062      4066      4071      4073      4062      4066      4071      4077
      4063      4062      4066      4067      4063      4062      4066      4068
      4063      4062      4066      4071      4064      4062      4066      4067
      4064      4062      4066      4068      4064      4062      4066      4071
      4065      4062      4066      4067      4065      4062      4066      4068
      4065      4062      4066      4071      4066      4071      4077      4074
      4067      4066      4068      4069      4067      4066      4068      4070
      4067      4066      4071      4072      4067      4066      4071      4073
      4067      4066      4071      4077      4068      4066      4071      4072
      4068      4066      4071      4073      4068      4066      4071      4077
      4069      4068      4066      4071      4070      4068      4066      4071
      4071      4077      4074      4075      4071      4077      4074      4076
      4071      4077      4074      4078      4072      4071      4077      4074
      4073      4071      4077      4074      4074      4078      4079      4080
      4074      4078      4079      4081      4074      4078      4079      4082
      4075      4074      4078      4079      4076      4074      4078      4079
      4077      4074      4078      4079      4078      4079      4082      4083
      4078      4079      4082      4084      4078      4079      4082      4090
      4079      4082      4084      4085      4079      4082      4090      4091
      4079      4082      4090      4092      4079      4082      4090      4093
      4080      4079      4082      4083      4080      4079      4082      4084
      4080      4079      4082      4090      4081      4079      4082      4083
      4081      4079      4082      4084      4081      4079      4082      4090
      4082      4084      4085      4086      4082      4084      4085      4087
      4082      4090      4093      4094      4083      4082      4084      4085
      4083      4082      4090      4091      4083      4082      4090      4092
      4083      4082      4090      4093      4084      4082      4090      4091
      4084      4082      4090      4092      4084      4082      4090      4093
      4084      4085      4087      4088      4084      4085      4087      4089
      4084      4085      4087      4099      4085      4084      4082      4090
      4085      4087      4099      4100      4085      4087      4099      4101
      4085      4087      4099      4102      4086      4085      4087      4088
      4086      4085      4087      4089      4086      4085      4087      4099
      4087      4099      4102      4103      4087      4099      4102      4104
      4087      4099      4102      4105      4088      4087      4099      4100
      4088      4087      4099      4101      4088      4087      4099      4102
      4089      4087      4099      4100      4089      4087      4099      4101
      4089      4087      4099      4102      4090      4093      4094      4095
      4090      4093      4094      4096      4091      4090      4093      4094
      4092      4090      4093      4094      4093      4094      4096      4097
      4093      4094      4096      4098      4093      4094      4096      4146
      4094      4096      4146      4147      4094      4096      4146      4148
      4094      4096      4146      4149      4095      4094      4096      4097
      4095      4094      4096      4098      4095      4094      4096      4146
      4096      4146      4149      4150      4096      4146      4149      4151
      4096      4146      4149      4152      4097      4096      4146      4147
      4097      4096      4146      4148      4097      4096      4146      4149
      4098      4096      4146      4147      4098      4096      4146      4148
      4098      4096      4146      4149      4099      4102      4105      4106
      4099      4102      4105      4107      4099      4102      4105      4108
      4100      4099      4102      4103      4100      4099      4102      4104
      4100      4099      4102      4105      4101      4099      4102      4103
      4101      4099      4102      4104      4101      4099      4102      4105
      4102      4105      4108      4109      4102      4105      4108      4110
      4102      4105      4108      4111      4103      4102      4105      4106
      4103      4102      4105      4107      4103      4102      4105      4108
      4104      4102      4105      4106      4104      4102      4105      4107
      4104      4102      4105      4108      4105      4108      4111      4112
      4105      4108      4111      4113      4105      4108      4111      4114
      4106      4105      4108      4109      4106      4105      4108      4110
      4106      4105      4108      4111      4107      4105      4108      4109
      4107      4105      4108      4110      4107      4105      4108      4111
      4108      4111      4114      4115      4108      4111      4114      4116
      4108      4111      4114      4117      4109      4108      4111      4112
      4109      4108      4111      4113      4109      4108      4111      4114
      4110      4108      4111      4112      4110      4108      4111      4113
      4110      4108      4111      4114      4111      4114      4117      4118
      4111      4114      4117      4119      4112      4111      4114      4115
      4112      4111      4114      4116      4112      4111      4114      4117
      4113      4111      4114      4115      4113      4111      4114      4116
      4113      4111      4114      4117      4114      4117      4119      4120
      4114      4117      4119      4121      4115      4114      4117      4118
      4115      4114      4117      4119      4116      4114      4117      4118
      4116      4114      4117      4119      4117      4119      4121      4122
      4117      4119      4121      4123      4117      4119      4121      4124
      4118      4117      4119      4120      4118      4117      4119      4121
      4119      4121      4124      4125      4119      4121      4124      4126
      4119      4121      4124      4127      4120      4119      4121      4122
      4120      4119      4121      4123      4120      4119      4121      4124
      4121      4124      4127      4128      4121      4124      4127      4129
      4121      4124      4127      4130      4122      4121      4124      4125
      4122      4121      4124      4126      4122      4121      4124      4127
      4123      4121      4124      4125      4123      4121      4124      4126
      4123      4121      4124      4127      4124      4127      4130      4131
      4124      4127      4130      4132      4124      4127      4130      4133
      4125      4124      4127      4128      4125      4124      4127      4129
      4125      4124      4127      4130      4126      4124      4127      4128
      4126      4124      4127      4129      4126      4124      4127      4130
      4127      4130      4133      4134      4127      4130      4133      4135
      4127      4130      4133      4136      4128      4127      4130      4131
      4128      4127      4130      4132      4128      4127      4130      4133
      4129      4127      4130      4131      4129      4127      4130      4132
      4129      4127      4130      4133      4130      4133      4136      4137
      4130      4133      4136      4138      4130      4133      4136      4139
      4131      4130      4133      4134      4131      4130      4133      4135
      4131      4130      4133      4136      4132      4130      4133      4134
      4132      4130      4133      4135      4132      4130      4133      4136
      4133      4136      4139      4140      4133      4136      4139      4141
      4133      4136      4139      4142      4134      4133      4136      4137
      4134      4133      4136      4138      4134      4133      4136      4139
      4135      4133      4136      4137      4135      4133      4136      4138
      4135      4133      4136      4139      4136      4139      4142      4143
      4136      4139      4142      4144      4136      4139      4142      4145
      4137      4136      4139      4140      4137      4136      4139      4141
      4137      4136      4139      4142      4138      4136      4139      4140
      4138      4136      4139      4141      4138      4136      4139      4142
      4140      4139      4142      4143      4140      4139      4142      4144
      4140      4139      4142      4145      4141      4139      4142      4143
      4141      4139      4142      4144      4141      4139      4142      4145
      4146      4149      4152      4153      4146      4149      4152      4154
      4146      4149      4152      4155      4147      4146      4149      4150
      4147      4146      4149      4151      4147      4146      4149      4152
      4148      4146      4149      4150      4148      4146      4149      4151
      4148      4146      4149      4152      4149      4152      4155      4156
      4149      4152      4155      4157      4149      4152      4155      4158
      4150      4149      4152      4153      4150      4149      4152      4154
      4150      4149      4152      4155      4151      4149      4152      4153
      4151      4149      4152      4154      4151      4149      4152      4155
      4152      4155      4158      4159      4152      4155      4158      4160
      4152      4155      4158      4161      4153      4152      4155      4156
      4153      4152      4155      4157      4153      4152      4155      4158
      4154      4152      4155      4156      4154      4152      4155      4157
      4154      4152      4155      4158      4155      4158      4161      4162
      4155      4158      4161      4163      4155      4158      4161      4164
      4156      4155      4158      4159      4156      4155      4158      4160
      4156      4155      4158      4161      4157      4155      4158      4159
      4157      4155      4158      4160      4157      4155      4158      4161
      4158      4161      4164      4165      4158      4161      4164      4166
      4158      4161      4164      4167      4159      4158      4161      4162
      4159      4158      4161      4163      4159      4158      4161      4164
      4160      4158      4161      4162      4160      4158      4161      4163
      4160      4158      4161      4164      4161      4164      4167      4168
      4161      4164      4167      4169      4161      4164      4167      4170
      4162      4161      4164      4165      4162      4161      4164      4166
      4162      4161      4164      4167      4163      4161      4164      4165
      4163      4161      4164      4166      4163      4161      4164      4167
      4164      4167      4170      4171      4164      4167      4170      4172
      4164      4167      4170      4173      4165      4164      4167      4168
      4165      4164      4167      4169      4165      4164      4167      4170
      4166      4164      4167      4168      4166      4164      4167      4169
      4166      4164      4167      4170      4167      4170      4173      4174
      4167      4170      4173      4175      4167      4170      4173      4176
      4168      4167      4170      4171      4168      4167      4170      4172
      4168      4167      4170      4173      4169      4167      4170      4171
      4169      4167      4170      4172      4169      4167      4170      4173
      4170      4173      4176      4177      4170      4173      4176      4178
      4170      4173      4176      4179      4171      4170      4173      4174
      4171      4170      4173      4175      4171      4170      4173      4176
      4172      4170      4173      4174      4172      4170      4173      4175
      4172      4170      4173      4176      4173      4176      4179      4180
      4173      4176      4179      4181      4173      4176      4179      4182
      4174      4173      4176      4177      4174      4173      4176      4178
      4174      4173      4176      4179      4175      4173      4176      4177
      4175      4173      4176      4178      4175      4173      4176      4179
      4176      4179      4182      4183      4176      4179      4182      4184
      4176      4179      4182      4185      4177      4176      4179      4180
      4177      4176      4179      4181      4177      4176      4179      4182
      4178      4176      4179      4180      4178      4176      4179      4181
      4178      4176      4179      4182      4179      4182      4185      4186
      4179      4182      4185      4187      4179      4182      4185      4188
      4180      4179      4182      4183      4180      4179      4182      4184
      4180      4179      4182      4185      4181      4179      4182      4183
      4181      4179      4182      4184      4181      4179      4182      4185
      4183      4182      4185      4186      4183      4182      4185      4187
      4183      4182      4185      4188      4184      4182      4185      4186
      4184      4182      4185      4187      4184      4182      4185      4188
      4189      4190      4205      4206      4189      4190      4205      4207
      4189      4190      4205      4211      4190      4189      4193      4194
      4190      4189      4193      4195      4190      4189      4193      4196
      4190      4189      4197      4198      4190      4189      4197      4199
      4190      4189      4197      4200      4190      4189      4201      4202
      4190      4189      4201      4203      4190      4189      4201      4204
      4190      4205      4211      4208      4191      4190      4189      4193
      4191      4190      4189      4197      4191      4190      4189      4201
      4191      4190      4205      4206      4191      4190      4205      4207
      4191      4190      4205      4211      4192      4190      4189      4193
      4192      4190      4189      4197      4192      4190      4189      4201
      4192      4190      4205      4206      4192      4190      4205      4207
      4192      4190      4205      4211      4193      4189      4190      4205
      4193      4189      4197      4198      4193      4189      4197      4199
      4193      4189      4197      4200      4193      4189      4201      4202
      4193      4189      4201      4203      4193      4189      4201      4204
      4194      4193      4189      4197      4194      4193      4189      4201
      4195      4193      4189      4197      4195      4193      4189      4201
      4196      4193      4189      4197      4196      4193      4189      4201
      4197      4189      4190      4205      4197      4189      4201      4202
      4197      4189      4201      4203      4197      4189      4201      4204
      4198      4197      4189      4201      4199      4197      4189      4201
      4200      4197      4189      4201      4201      4189      4190      4205
      4205      4211      4208      4209      4205      4211      4208      4210
      4205      4211      4208      4212      4206      4205      4211      4208
      4207      4205      4211      4208      4208      4212      4213      4214
      4208      4212      4213      4215      4208      4212      4213      4216
      4209      4208      4212      4213      4210      4208      4212      4213
      4211      4208      4212      4213      4212      4213      4216      4217
      4212      4213      4216      4218      4212      4213      4216      4224
      4213      4216      4218      4219      4213      4216      4224      4225
      4213      4216      4224      4226      4213      4216      4224      4227
      4214      4213      4216      4217      4214      4213      4216      4218
      4214      4213      4216      4224      4215      4213      4216      4217
      4215      4213      4216      4218      4215      4213      4216      4224
      4216      4218      4219      4220      4216      4218      4219      4221
      4216      4224      4227      4228      4217      4216      4218      4219
      4217      4216      4224      4225      4217      4216      4224      4226
      4217      4216      4224      4227      4218      4216      4224      4225
      4218      4216      4224      4226      4218      4216      4224      4227
      4218      4219      4221      4222      4218      4219      4221      4223
      4218      4219      4221      4233      4219      4218      4216      4224
      4219      4221      4233      4234      4219      4221      4233      4235
      4219      4221      4233      4236      4220      4219      4221      4222
      4220      4219      4221      4223      4220      4219      4221      4233
      4221      4233      4236      4237      4221      4233      4236      4238
      4221      4233      4236      4239      4222      4221      4233      4234
      4222      4221      4233      4235      4222      4221      4233      4236
      4223      4221      4233      4234      4223      4221      4233      4235
      4223      4221      4233      4236      4224      4227      4228      4229
      4224      4227      4228      4230      4225      4224      4227      4228
      4226      4224      4227      4228      4227      4228      4230      4231
      4227      4228      4230      4232      4227      4228      4230      4280
      4228      4230      4280      4281      4228      4230      4280      4282
      4228      4230      4280      4283      4229      4228      4230      4231
      4229      4228      4230      4232      4229      4228      4230      4280
      4230      4280      4283      4284      4230      4280      4283      4285
      4230      4280      4283      4286      4231      4230      4280      4281
      4231      4230      4280      4282      4231      4230      4280      4283
      4232      4230      4280      4281      4232      4230      4280      4282
      4232      4230      4280      4283      4233      4236      4239      4240
      4233      4236      4239      4241      4233      4236      4239      4242
      4234      4233      4236      4237      4234      4233      4236      4238
      4234      4233      4236      4239      4235      4233      4236      4237
      4235      4233      4236      4238      4235      4233      4236      4239
      4236      4239      4242      4243      4236      4239      4242      4244
      4236      4239      4242      4245      4237      4236      4239      4240
      4237      4236      4239      4241      4237      4236      4239      4242
      4238      4236      4239      4240      4238      4236      4239      4241
      4238      4236      4239      4242      4239      4242      4245      4246
      4239      4242      4245      4247      4239      4242      4245      4248
      4240      4239      4242      4243      4240      4239      4242      4244
      4240      4239      4242      4245      4241      4239      4242      4243
      4241      4239      4242      4244      4241      4239      4242      4245
      4242      4245      4248      4249      4242      4245      4248      4250
      4242      4245      4248      4251      4243      4242      4245      4246
      4243      4242      4245      4247      4243      4242      4245      4248
      4244      4242      4245      4246      4244      4242      4245      4247
      4244      4242      4245      4248      4245      4248      4251      4252
      4245      4248      4251      4253      4246      4245      4248      4249
      4246      4245      4248      4250      4246      4245      4248      4251
      4247      4245      4248      4249      4247      4245      4248      4250
      4247      4245      4248      4251      4248      4251      4253      4254
      4248      4251      4253      4255      4249      4248      4251      4252
      4249      4248      4251      4253      4250      4248      4251      4252
      4250      4248      4251      4253      4251      4253      4255      4256
      4251      4253      4255      4257      4251      4253      4255      4258
      4252      4251      4253      4254      4252      4251      4253      4255
      4253      4255      4258      4259      4253      4255      4258      4260
      4253      4255      4258      4261      4254      4253      4255      4256
      4254      4253      4255      4257      4254      4253      4255      4258
      4255      4258      4261      4262      4255      4258      4261      4263
      4255      4258      4261      4264      4256      4255      4258      4259
      4256      4255      4258      4260      4256      4255      4258      4261
      4257      4255      4258      4259      4257      4255      4258      4260
      4257      4255      4258      4261      4258      4261      4264      4265
      4258      4261      4264      4266      4258      4261      4264      4267
      4259      4258      4261      4262      4259      4258      4261      4263
      4259      4258      4261      4264      4260      4258      4261      4262
      4260      4258      4261      4263      4260      4258      4261      4264
      4261      4264      4267      4268      4261      4264      4267      4269
      4261      4264      4267      4270      4262      4261      4264      4265
      4262      4261      4264      4266      4262      4261      4264      4267
      4263      4261      4264      4265      4263      4261      4264      4266
      4263      4261      4264      4267      4264      4267      4270      4271
      4264      4267      4270      4272      4264      4267      4270      4273
      4265      4264      4267      4268      4265      4264      4267      4269
      4265      4264      4267      4270      4266      4264      4267      4268
      4266      4264      4267      4269      4266      4264      4267      4270
      4267      4270      4273      4274      4267      4270      4273      4275
      4267      4270      4273      4276      4268      4267      4270      4271
      4268      4267      4270      4272      4268      4267      4270      4273
      4269      4267      4270      4271      4269      4267      4270      4272
      4269      4267      4270      4273      4270      4273      4276      4277
      4270      4273      4276      4278      4270      4273      4276      4279
      4271      4270      4273      4274      4271      4270      4273      4275
      4271      4270      4273      4276      4272      4270      4273      4274
      4272      4270      4273      4275      4272      4270      4273      4276
      4274      4273      4276      4277      4274      4273      4276      4278
      4274      4273      4276      4279      4275      4273      4276      4277
      4275      4273      4276      4278      4275      4273      4276      4279
      4280      4283      4286      4287      4280      4283      4286      4288
      4280      4283      4286      4289      4281      4280      4283      4284
      4281      4280      4283      4285      4281      4280      4283      4286
      4282      4280      4283      4284      4282      4280      4283      4285
      4282      4280      4283      4286      4283      4286      4289      4290
      4283      4286      4289      4291      4283      4286      4289      4292
      4284      4283      4286      4287      4284      4283      4286      4288
      4284      4283      4286      4289      4285      4283      4286      4287
      4285      4283      4286      4288      4285      4283      4286      4289
      4286      4289      4292      4293      4286      4289      4292      4294
      4286      4289      4292      4295      4287      4286      4289      4290
      4287      4286      4289      4291      4287      4286      4289      4292
      4288      4286      4289      4290      4288      4286      4289      4291
      4288      4286      4289      4292      4289      4292      4295      4296
      4289      4292      4295      4297      4289      4292      4295      4298
      4290      4289      4292      4293      4290      4289      4292      4294
      4290      4289      4292      4295      4291      4289      4292      4293
      4291      4289      4292      4294      4291      4289      4292      4295
      4292      4295      4298      4299      4292      4295      4298      4300
      4292      4295      4298      4301      4293      4292      4295      4296
      4293      4292      4295      4297      4293      4292      4295      4298
      4294      4292      4295      4296      4294      4292      4295      4297
      4294      4292      4295      4298      4295      4298      4301      4302
      4295      4298      4301      4303      4295      4298      4301      4304
      4296      4295      4298      4299      4296      4295      4298      4300
      4296      4295      4298      4301      4297      4295      4298      4299
      4297      4295      4298      4300      4297      4295      4298      4301
      4298      4301      4304      4305      4298      4301      4304      4306
      4298      4301      4304      4307      4299      4298      4301      4302
      4299      4298      4301      4303      4299      4298      4301      4304
      4300      4298      4301      4302      4300      4298      4301      4303
      4300      4298      4301      4304      4301      4304      4307      4308
      4301      4304      4307      4309      4301      4304      4307      4310
      4302      4301      4304      4305      4302      4301      4304      4306
      4302      4301      4304      4307      4303      4301      4304      4305
      4303      4301      4304      4306      4303      4301      4304      4307
      4304      4307      4310      4311      4304      4307      4310      4312
      4304      4307      4310      4313      4305      4304      4307      4308
      4305      4304      4307      4309      4305      4304      4307      4310
      4306      4304      4307      4308      4306      4304      4307      4309
      4306      4304      4307      4310      4307      4310      4313      4314
      4307      4310      4313      4315      4307      4310      4313      4316
      4308      4307      4310      4311      4308      4307      4310      4312
      4308      4307      4310      4313      4309      4307      4310      4311
      4309      4307      4310      4312      4309      4307      4310      4313
      4310      4313      4316      4317      4310      4313      4316      4318
      4310      4313      4316      4319      4311      4310      4313      4314
      4311      4310      4313      4315      4311      4310      4313      4316
      4312      4310      4313      4314      4312      4310      4313      4315
      4312      4310      4313      4316      4313      4316      4319      4320
      4313      4316      4319      4321      4313      4316      4319      4322
      4314      4313      4316      4317      4314      4313      4316      4318
      4314      4313      4316      4319      4315      4313      4316      4317
      4315      4313      4316      4318      4315      4313      4316      4319
      4317      4316      4319      4320      4317      4316      4319      4321
      4317      4316      4319      4322      4318      4316      4319      4320
      4318      4316      4319      4321      4318      4316      4319      4322
      4323      4324      4339      4340      4323      4324      4339      4341
      4323      4324      4339      4345      4324      4323      4327      4328
      4324      4323      4327      4329      4324      4323      4327      4330
      4324      4323      4331      4332      4324      4323      4331      4333
      4324      4323      4331      4334      4324      4323      4335      4336
      4324      4323      4335      4337      4324      4323      4335      4338
      4324      4339      4345      4342      4325      4324      4323      4327
      4325      4324      4323      4331      4325      4324      4323      4335
      4325      4324      4339      4340      4325      4324      4339      4341
      4325      4324      4339      4345      4326      4324      4323      4327
      4326      4324      4323      4331      4326      4324      4323      4335
      4326      4324      4339      4340      4326      4324      4339      4341
      4326      4324      4339      4345      4327      4323      4324      4339
      4327      4323      4331      4332      4327      4323      4331      4333
      4327      4323      4331      4334      4327      4323      4335      4336
      4327      4323      4335      4337      4327      4323      4335      4338
      4328      4327      4323      4331      4328      4327      4323      4335
      4329      4327      4323      4331      4329      4327      4323      4335
      4330      4327      4323      4331      4330      4327      4323      4335
      4331      4323      4324      4339      4331      4323      4335      4336
      4331      4323      4335      4337      4331      4323      4335      4338
      4332      4331      4323      4335      4333      4331      4323      4335
      4334      4331      4323      4335      4335      4323      4324      4339
      4339      4345      4342      4343      4339      4345      4342      4344
      4339      4345      4342      4346      4340      4339      4345      4342
      4341      4339      4345      4342      4342      4346      4347      4348
      4342      4346      4347      4349      4342      4346      4347      4350
      4343      4342      4346      4347      4344      4342      4346      4347
      4345      4342      4346      4347      4346      4347      4350      4351
      4346      4347      4350      4352      4346      4347      4350      4358
      4347      4350      4352      4353      4347      4350      4358      4359
      4347      4350      4358      4360      4347      4350      4358      4361
      4348      4347      4350      4351      4348      4347      4350      4352
      4348      4347      4350      4358      4349      4347      4350      4351
      4349      4347      4350      4352      4349      4347      4350      4358
      4350      4352      4353      4354      4350      4352      4353      4355
      4350      4358      4361      4362      4351      4350      4352      4353
      4351      4350      4358      4359      4351      4350      4358      4360
      4351      4350      4358      4361      4352      4350      4358      4359
      4352      4350      4358      4360      4352      4350      4358      4361
      4352      4353      4355      4356      4352      4353      4355      4357
      4352      4353      4355      4367      4353      4352      4350      4358
      4353      4355      4367      4368      4353      4355      4367      4369
      4353      4355      4367      4370      4354      4353      4355      4356
      4354      4353      4355      4357      4354      4353      4355      4367
      4355      4367      4370      4371      4355      4367      4370      4372
      4355      4367      4370      4373      4356      4355      4367      4368
      4356      4355      4367      4369      4356      4355      4367      4370
      4357      4355      4367      4368      4357      4355      4367      4369
      4357      4355      4367      4370      4358      4361      4362      4363
      4358      4361      4362      4364      4359      4358      4361      4362
      4360      4358      4361      4362      4361      4362      4364      4365
      4361      4362      4364      4366      4361      4362      4364      4414
      4362      4364      4414      4415      4362      4364      4414      4416
      4362      4364      4414      4417      4363      4362      4364      4365
      4363      4362      4364      4366      4363      4362      4364      4414
      4364      4414      4417      4418      4364      4414      4417      4419
      4364      4414      4417      4420      4365      4364      4414      4415
      4365      4364      4414      4416      4365      4364      4414      4417
      4366      4364      4414      4415      4366      4364      4414      4416
      4366      4364      4414      4417      4367      4370      4373      4374
      4367      4370      4373      4375      4367      4370      4373      4376
      4368      4367      4370      4371      4368      4367      4370      4372
      4368      4367      4370      4373      4369      4367      4370      4371
      4369      4367      4370      4372      4369      4367      4370      4373
      4370      4373      4376      4377      4370      4373      4376      4378
      4370      4373      4376      4379      4371      4370      4373      4374
      4371      4370      4373      4375      4371      4370      4373      4376
      4372      4370      4373      4374      4372      4370      4373      4375
      4372      4370      4373      4376      4373      4376      4379      4380
      4373      4376      4379      4381      4373      4376      4379      4382
      4374      4373      4376      4377      4374      4373      4376      4378
      4374      4373      4376      4379      4375      4373      4376      4377
      4375      4373      4376      4378      4375      4373      4376      4379
      4376      4379      4382      4383      4376      4379      4382      4384
      4376      4379      4382      4385      4377      4376      4379      4380
      4377      4376      4379      4381      4377      4376      4379      4382
      4378      4376      4379      4380      4378      4376      4379      4381
      4378      4376      4379      4382      4379      4382      4385      4386
      4379      4382      4385      4387      4380      4379      4382      4383
      4380      4379      4382      4384      4380      4379      4382      4385
      4381      4379      4382      4383      4381      4379      4382      4384
      4381      4379      4382      4385      4382      4385      4387      4388
      4382      4385      4387      4389      4383      4382      4385      4386
      4383      4382      4385      4387      4384      4382      4385      4386
      4384      4382      4385      4387      4385      4387      4389      4390
      4385      4387      4389      4391      4385      4387      4389      4392
      4386      4385      4387      4388      4386      4385      4387      4389
      4387      4389      4392      4393      4387      4389      4392      4394
      4387      4389      4392      4395      4388      4387      4389      4390
      4388      4387      4389      4391      4388      4387      4389      4392
      4389      4392      4395      4396      4389      4392      4395      4397
      4389      4392      4395      4398      4390      4389      4392      4393
      4390      4389      4392      4394      4390      4389      4392      4395
      4391      4389      4392      4393      4391      4389      4392      4394
      4391      4389      4392      4395      4392      4395      4398      4399
      4392      4395      4398      4400      4392      4395      4398      4401
      4393      4392      4395      4396      4393      4392      4395      4397
      4393      4392      4395      4398      4394      4392      4395      4396
      4394      4392      4395      4397      4394      4392      4395      4398
      4395      4398      4401      4402      4395      4398      4401      4403
      4395      4398      4401      4404      4396      4395      4398      4399
      4396      4395      4398      4400      4396      4395      4398      4401
      4397      4395      4398      4399      4397      4395      4398      4400
      4397      4395      4398      4401      4398      4401      4404      4405
      4398      4401      4404      4406      4398      4401      4404      4407
      4399      4398      4401      4402      4399      4398      4401      4403
      4399      4398      4401      4404      4400      4398      4401      4402
      4400      4398      4401      4403      4400      4398      4401      4404
      4401      4404      4407      4408      4401      4404      4407      4409
      4401      4404      4407      4410      4402      4401      4404      4405
      4402      4401      4404      4406      4402      4401      4404      4407
      4403      4401      4404      4405      4403      4401      4404      4406
      4403      4401      4404      4407      4404      4407      4410      4411
      4404      4407      4410      4412      4404      4407      4410      4413
      4405      4404      4407      4408      4405      4404      4407      4409
      4405      4404      4407      4410      4406      4404      4407      4408
      4406      4404      4407      4409      4406      4404      4407      4410
      4408      4407      4410      4411      4408      4407      4410      4412
      4408      4407      4410      4413      4409      4407      4410      4411
      4409      4407      4410      4412      4409      4407      4410      4413
      4414      4417      4420      4421      4414      4417      4420      4422
      4414      4417      4420      4423      4415      4414      4417      4418
      4415      4414      4417      4419      4415      4414      4417      4420
      4416      4414      4417      4418      4416      4414      4417      4419
      4416      4414      4417      4420      4417      4420      4423      4424
      4417      4420      4423      4425      4417      4420      4423      4426
      4418      4417      4420      4421      4418      4417      4420      4422
      4418      4417      4420      4423      4419      4417      4420      4421
      4419      4417      4420      4422      4419      4417      4420      4423
      4420      4423      4426      4427      4420      4423      4426      4428
      4420      4423      4426      4429      4421      4420      4423      4424
      4421      4420      4423      4425      4421      4420      4423      4426
      4422      4420      4423      4424      4422      4420      4423      4425
      4422      4420      4423      4426      4423      4426      4429      4430
      4423      4426      4429      4431      4423      4426      4429      4432
      4424      4423      4426      4427      4424      4423      4426      4428
      4424      4423      4426      4429      4425      4423      4426      4427
      4425      4423      4426      4428      4425      4423      4426      4429
      4426      4429      4432      4433      4426      4429      4432      4434
      4426      4429      4432      4435      4427      4426      4429      4430
      4427      4426      4429      4431      4427      4426      4429      4432
      4428      4426      4429      4430      4428      4426      4429      4431
      4428      4426      4429      4432      4429      4432      4435      4436
      4429      4432      4435      4437      4429      4432      4435      4438
      4430      4429      4432      4433      4430      4429      4432      4434
      4430      4429      4432      4435      4431      4429      4432      4433
      4431      4429      4432      4434      4431      4429      4432      4435
      4432      4435      4438      4439      4432      4435      4438      4440
      4432      4435      4438      4441      4433      4432      4435      4436
      4433      4432      4435      4437      4433      4432      4435      4438
      4434      4432      4435      4436      4434      4432      4435      4437
      4434      4432      4435      4438      4435      4438      4441      4442
      4435      4438      4441      4443      4435      4438      4441      4444
      4436      4435      4438      4439      4436      4435      4438      4440
      4436      4435      4438      4441      4437      4435      4438      4439
      4437      4435      4438      4440      4437      4435      4438      4441
      4438      4441      4444      4445      4438      4441      4444      4446
      4438      4441      4444      4447      4439      4438      4441      4442
      4439      4438      4441      4443      4439      4438      4441      4444
      4440      4438      4441      4442      4440      4438      4441      4443
      4440      4438      4441      4444      4441      4444      4447      4448
      4441      4444      4447      4449      4441      4444      4447      4450
      4442      4441      4444      4445      4442      4441      4444      4446
      4442      4441      4444      4447      4443      4441      4444      4445
      4443      4441      4444      4446      4443      4441      4444      4447
      4444      4447      4450      4451      4444      4447      4450      4452
      4444      4447      4450      4453      4445      4444      4447      4448
      4445      4444      4447      4449      4445      4444      4447      4450
      4446      4444      4447      4448      4446      4444      4447      4449
      4446      4444      4447      4450      4447      4450      4453      4454
      4447      4450      4453      4455      4447      4450      4453      4456
      4448      4447      4450      4451      4448      4447      4450      4452
      4448      4447      4450      4453      4449      4447      4450      4451
      4449      4447      4450      4452      4449      4447      4450      4453
      4451      4450      4453      4454      4451      4450      4453      4455
      4451      4450      4453      4456      4452      4450      4453      4454
      4452      4450      4453      4455      4452      4450      4453      4456
      4457      4458      4473      4474      4457      4458      4473      4475
      4457      4458      4473      4479      4458      4457      4461      4462
      4458      4457      4461      4463      4458      4457      4461      4464
      4458      4457      4465      4466      4458      4457      4465      4467
      4458      4457      4465      4468      4458      4457      4469      4470
      4458      4457      4469      4471      4458      4457      4469      4472
      4458      4473      4479      4476      4459      4458      4457      4461
      4459      4458      4457      4465      4459      4458      4457      4469
      4459      4458      4473      4474      4459      4458      4473      4475
      4459      4458      4473      4479      4460      4458      4457      4461
      4460      4458      4457      4465      4460      4458      4457      4469
      4460      4458      4473      4474      4460      4458      4473      4475
      4460      4458      4473      4479      4461      4457      4458      4473
      4461      4457      4465      4466      4461      4457      4465      4467
      4461      4457      4465      4468      4461      4457      4469      4470
      4461      4457      4469      4471      4461      4457      4469      4472
      4462      4461      4457      4465      4462      4461      4457      4469
      4463      4461      4457      4465      4463      4461      4457      4469
      4464      4461      4457      4465      4464      4461      4457      4469
      4465      4457      4458      4473      4465      4457      4469      4470
      4465      4457      4469      4471      4465      4457      4469      4472
      4466      4465      4457      4469      4467      4465      4457      4469
      4468      4465      4457      4469      4469      4457      4458      4473
      4473      4479      4476      4477      4473      4479      4476      4478
      4473      4479      4476      4480      4474      4473      4479      4476
      4475      4473      4479      4476      4476      4480      4481      4482
      4476      4480      4481      4483      4476      4480      4481      4484
      4477      4476      4480      4481      4478      4476      4480      4481
      4479      4476      4480      4481      4480      4481      4484      4485
      4480      4481      4484      4486      4480      4481      4484      4492
      4481      4484      4486      4487      4481      4484      4492      4493
      4481      4484      4492      4494      4481      4484      4492      4495
      4482      4481      4484      4485      4482      4481      4484      4486
      4482      4481      4484      4492      4483      4481      4484      4485
      4483      4481      4484      4486      4483      4481      4484      4492
      4484      4486      4487      4488      4484      4486      4487      4489
      4484      4492      4495      4496      4485      4484      4486      4487
      4485      4484      4492      4493      4485      4484      4492      4494
      4485      4484      4492      4495      4486      4484      4492      4493
      4486      4484      4492      4494      4486      4484      4492      4495
      4486      4487      4489      4490      4486      4487      4489      4491
      4486      4487      4489      4501      4487      4486      4484      4492
      4487      4489      4501      4502      4487      4489      4501      4503
      4487      4489      4501      4504      4488      4487      4489      4490
      4488      4487      4489      4491      4488      4487      4489      4501
      4489      4501      4504      4505      4489      4501      4504      4506
      4489      4501      4504      4507      4490      4489      4501      4502
      4490      4489      4501      4503      4490      4489      4501      4504
      4491      4489      4501      4502      4491      4489      4501      4503
      4491      4489      4501      4504      4492      4495      4496      4497
      4492      4495      4496      4498      4493      4492      4495      4496
      4494      4492      4495      4496      4495      4496      4498      4499
      4495      4496      4498      4500      4495      4496      4498      4548
      4496      4498      4548      4549      4496      4498      4548      4550
      4496      4498      4548      4551      4497      4496      4498      4499
      4497      4496      4498      4500      4497      4496      4498      4548
      4498      4548      4551      4552      4498      4548      4551      4553
      4498      4548      4551      4554      4499      4498      4548      4549
      4499      4498      4548      4550      4499      4498      4548      4551
      4500      4498      4548      4549      4500      4498      4548      4550
      4500      4498      4548      4551      4501      4504      4507      4508
      4501      4504      4507      4509      4501      4504      4507      4510
      4502      4501      4504      4505      4502      4501      4504      4506
      4502      4501      4504      4507      4503      4501      4504      4505
      4503      4501      4504      4506      4503      4501      4504      4507
      4504      4507      4510      4511      4504      4507      4510      4512
      4504      4507      4510      4513      4505      4504      4507      4508
      4505      4504      4507      4509      4505      4504      4507      4510
      4506      4504      4507      4508      4506      4504      4507      4509
      4506      4504      4507      4510      4507      4510      4513      4514
      4507      4510      4513      4515      4507      4510      4513      4516
      4508      4507      4510      4511      4508      4507      4510      4512
      4508      4507      4510      4513      4509      4507      4510      4511
      4509      4507      4510      4512      4509      4507      4510      4513
      4510      4513      4516      4517      4510      4513      4516      4518
      4510      4513      4516      4519      4511      4510      4513      4514
      4511      4510      4513      4515      4511      4510      4513      4516
      4512      4510      4513      4514      4512      4510      4513      4515
      4512      4510      4513      4516      4513      4516      4519      4520
      4513      4516      4519      4521      4514      4513      4516      4517
      4514      4513      4516      4518      4514      4513      4516      4519
      4515      4513      4516      4517      4515      4513      4516      4518
      4515      4513      4516      4519      4516      4519      4521      4522
      4516      4519      4521      4523      4517      4516      4519      4520
      4517      4516      4519      4521      4518      4516      4519      4520
      4518      4516      4519      4521      4519      4521      4523      4524
      4519      4521      4523      4525      4519      4521      4523      4526
      4520      4519      4521      4522      4520      4519      4521      4523
      4521      4523      4526      4527      4521      4523      4526      4528
      4521      4523      4526      4529      4522      4521      4523      4524
      4522      4521      4523      4525      4522      4521      4523      4526
      4523      4526      4529      4530      4523      4526      4529      4531
      4523      4526      4529      4532      4524      4523      4526      4527
      4524      4523      4526      4528      4524      4523      4526      4529
      4525      4523      4526      4527      4525      4523      4526      4528
      4525      4523      4526      4529      4526      4529      4532      4533
      4526      4529      4532      4534      4526      4529      4532      4535
      4527      4526      4529      4530      4527      4526      4529      4531
      4527      4526      4529      4532      4528      4526      4529      4530
      4528      4526      4529      4531      4528      4526      4529      4532
      4529      4532      4535      4536      4529      4532      4535      4537
      4529      4532      4535      4538      4530      4529      4532      4533
      4530      4529      4532      4534      4530      4529      4532      4535
      4531      4529      4532      4533      4531      4529      4532      4534
      4531      4529      4532      4535      4532      4535      4538      4539
      4532      4535      4538      4540      4532      4535      4538      4541
      4533      4532      4535      4536      4533      4532      4535      4537
      4533      4532      4535      4538      4534      4532      4535      4536
      4534      4532      4535      4537      4534      4532      4535      4538
      4535      4538      4541      4542      4535      4538      4541      4543
      4535      4538      4541      4544      4536      4535      4538      4539
      4536      4535      4538      4540      4536      4535      4538      4541
      4537      4535      4538      4539      4537      4535      4538      4540
      4537      4535      4538      4541      4538      4541      4544      4545
      4538      4541      4544      4546      4538      4541      4544      4547
      4539      4538      4541      4542      4539      4538      4541      4543
      4539      4538      4541      4544      4540      4538      4541      4542
      4540      4538      4541      4543      4540      4538      4541      4544
      4542      4541      4544      4545      4542      4541      4544      4546
      4542      4541      4544      4547      4543      4541      4544      4545
      4543      4541      4544      4546      4543      4541      4544      4547
      4548      4551      4554      4555      4548      4551      4554      4556
      4548      4551      4554      4557      4549      4548      4551      4552
      4549      4548      4551      4553      4549      4548      4551      4554
      4550      4548      4551      4552      4550      4548      4551      4553
      4550      4548      4551      4554      4551      4554      4557      4558
      4551      4554      4557      4559      4551      4554      4557      4560
      4552      4551      4554      4555      4552      4551      4554      4556
      4552      4551      4554      4557      4553      4551      4554      4555
      4553      4551      4554      4556      4553      4551      4554      4557
      4554      4557      4560      4561      4554      4557      4560      4562
      4554      4557      4560      4563      4555      4554      4557      4558
      4555      4554      4557      4559      4555      4554      4557      4560
      4556      4554      4557      4558      4556      4554      4557      4559
      4556      4554      4557      4560      4557      4560      4563      4564
      4557      4560      4563      4565      4557      4560      4563      4566
      4558      4557      4560      4561      4558      4557      4560      4562
      4558      4557      4560      4563      4559      4557      4560      4561
      4559      4557      4560      4562      4559      4557      4560      4563
      4560      4563      4566      4567      4560      4563      4566      4568
      4560      4563      4566      4569      4561      4560      4563      4564
      4561      4560      4563      4565      4561      4560      4563      4566
      4562      4560      4563      4564      4562      4560      4563      4565
      4562      4560      4563      4566      4563      4566      4569      4570
      4563      4566      4569      4571      4563      4566      4569      4572
      4564      4563      4566      4567      4564      4563      4566      4568
      4564      4563      4566      4569      4565      4563      4566      4567
      4565      4563      4566      4568      4565      4563      4566      4569
      4566      4569      4572      4573      4566      4569      4572      4574
      4566      4569      4572      4575      4567      4566      4569      4570
      4567      4566      4569      4571      4567      4566      4569      4572
      4568      4566      4569      4570      4568      4566      4569      4571
      4568      4566      4569      4572      4569      4572      4575      4576
      4569      4572      4575      4577      4569      4572      4575      4578
      4570      4569      4572      4573      4570      4569      4572      4574
      4570      4569      4572      4575      4571      4569      4572      4573
      4571      4569      4572      4574      4571      4569      4572      4575
      4572      4575      4578      4579      4572      4575      4578      4580
      4572      4575      4578      4581      4573      4572      4575      4576
      4573      4572      4575      4577      4573      4572      4575      4578
      4574      4572      4575      4576      4574      4572      4575      4577
      4574      4572      4575      4578      4575      4578      4581      4582
      4575      4578      4581      4583      4575      4578      4581      4584
      4576      4575      4578      4579      4576      4575      4578      4580
      4576      4575      4578      4581      4577      4575      4578      4579
      4577      4575      4578      4580      4577      4575      4578      4581
      4578      4581      4584      4585      4578      4581      4584      4586
      4578      4581      4584      4587      4579      4578      4581      4582
      4579      4578      4581      4583      4579      4578      4581      4584
      4580      4578      4581      4582      4580      4578      4581      4583
      4580      4578      4581      4584      4581      4584      4587      4588
      4581      4584      4587      4589      4581      4584      4587      4590
      4582      4581      4584      4585      4582      4581      4584      4586
      4582      4581      4584      4587      4583      4581      4584      4585
      4583      4581      4584      4586      4583      4581      4584      4587
      4585      4584      4587      4588      4585      4584      4587      4589
      4585      4584      4587      4590      4586      4584      4587      4588
      4586      4584      4587      4589      4586      4584      4587      4590
      4591      4592      4607      4608      4591      4592      4607      4609
      4591      4592      4607      4613      4592      4591      4595      4596
      4592      4591      4595      4597      4592      4591      4595      4598
      4592      4591      4599      4600      4592      4591      4599      4601
      4592      4591      4599      4602      4592      4591      4603      4604
      4592      4591      4603      4605      4592      4591      4603      4606
      4592      4607      4613      4610      4593      4592      4591      4595
      4593      4592      4591      4599      4593      4592      4591      4603
      4593      4592      4607      4608      4593      4592      4607      4609
      4593      4592      4607      4613      4594      4592      4591      4595
      4594      4592      4591      4599      4594      4592      4591      4603
      4594      4592      4607      4608      4594      4592      4607      4609
      4594      4592      4607      4613      4595      4591      4592      4607
      4595      4591      4599      4600      4595      4591      4599      4601
      4595      4591      4599      4602      4595      4591      4603      4604
      4595      4591      4603      4605      4595      4591      4603      4606
      4596      4595      4591      4599      4596      4595      4591      4603
      4597      4595      4591      4599      4597      4595      4591      4603
      4598      4595      4591      4599      4598      4595      4591      4603
      4599      4591      4592      4607      4599      4591      4603      4604
      4599      4591      4603      4605      4599      4591      4603      4606
      4600      4599      4591      4603      4601      4599      4591      4603
      4602      4599      4591      4603      4603      4591      4592      4607
      4607      4613      4610      4611      4607      4613      4610      4612
      4607      4613      4610      4614      4608      4607      4613      4610
      4609      4607      4613      4610      4610      4614      4615      4616
      4610      4614      4615      4617      4610      4614      4615      4618
      4611      4610      4614      4615      4612      4610      4614      4615
      4613      4610      4614      4615      4614      4615      4618      4619
      4614      4615      4618      4620      4614      4615      4618      4626
      4615      4618      4620      4621      4615      4618      4626      4627
      4615      4618      4626      4628      4615      4618      4626      4629
      4616      4615      4618      4619      4616      4615      4618      4620
      4616      4615      4618      4626      4617      4615      4618      4619
      4617      4615      4618      4620      4617      4615      4618      4626
      4618      4620      4621      4622      4618      4620      4621      4623
      4618      4626      4629      4630      4619      4618      4620      4621
      4619      4618      4626      4627      4619      4618      4626      4628
      4619      4618      4626      4629      4620      4618      4626      4627
      4620      4618      4626      4628      4620      4618      4626      4629
      4620      4621      4623      4624      4620      4621      4623      4625
      4620      4621      4623      4635      4621      4620      4618      4626
      4621      4623      4635      4636      4621      4623      4635      4637
      4621      4623      4635      4638      4622      4621      4623      4624
      4622      4621      4623      4625      4622      4621      4623      4635
      4623      4635      4638      4639      4623      4635      4638      4640
      4623      4635      4638      4641      4624      4623      4635      4636
      4624      4623      4635      4637      4624      4623      4635      4638
      4625      4623      4635      4636      4625      4623      4635      4637
      4625      4623      4635      4638      4626      4629      4630      4631
      4626      4629      4630      4632      4627      4626      4629      4630
      4628      4626      4629      4630      4629      4630      4632      4633
      4629      4630      4632      4634      4629      4630      4632      4682
      4630      4632      4682      4683      4630      4632      4682      4684
      4630      4632      4682      4685      4631      4630      4632      4633
      4631      4630      4632      4634      4631      4630      4632      4682
      4632      4682      4685      4686      4632      4682      4685      4687
      4632      4682      4685      4688      4633      4632      4682      4683
      4633      4632      4682      4684      4633      4632      4682      4685
      4634      4632      4682      4683      4634      4632      4682      4684
      4634      4632      4682      4685      4635      4638      4641      4642
      4635      4638      4641      4643      4635      4638      4641      4644
      4636      4635      4638      4639      4636      4635      4638      4640
      4636      4635      4638      4641      4637      4635      4638      4639
      4637      4635      4638      4640      4637      4635      4638      4641
      4638      4641      4644      4645      4638      4641      4644      4646
      4638      4641      4644      4647      4639      4638      4641      4642
      4639      4638      4641      4643      4639      4638      4641      4644
      4640      4638      4641      4642      4640      4638      4641      4643
      4640      4638      4641      4644      4641      4644      4647      4648
      4641      4644      4647      4649      4641      4644      4647      4650
      4642      4641      4644      4645      4642      4641      4644      4646
      4642      4641      4644      4647      4643      4641      4644      4645
      4643      4641      4644      4646      4643      4641      4644      4647
      4644      4647      4650      4651      4644      4647      4650      4652
      4644      4647      4650      4653      4645      4644      4647      4648
      4645      4644      4647      4649      4645      4644      4647      4650
      4646      4644      4647      4648      4646      4644      4647      4649
      4646      4644      4647      4650      4647      4650      4653      4654
      4647      4650      4653      4655      4648      4647      4650      4651
      4648      4647      4650      4652      4648      4647      4650      4653
      4649      4647      4650      4651      4649      4647      4650      4652
      4649      4647      4650      4653      4650      4653      4655      4656
      4650      4653      4655      4657      4651      4650      4653      4654
      4651      4650      4653      4655      4652      4650      4653      4654
      4652      4650      4653      4655      4653      4655      4657      4658
      4653      4655      4657      4659      4653      4655      4657      4660
      4654      4653      4655      4656      4654      4653      4655      4657
      4655      4657      4660      4661      4655      4657      4660      4662
      4655      4657      4660      4663      4656      4655      4657      4658
      4656      4655      4657      4659      4656      4655      4657      4660
      4657      4660      4663      4664      4657      4660      4663      4665
      4657      4660      4663      4666      4658      4657      4660      4661
      4658      4657      4660      4662      4658      4657      4660      4663
      4659      4657      4660      4661      4659      4657      4660      4662
      4659      4657      4660      4663      4660      4663      4666      4667
      4660      4663      4666      4668      4660      4663      4666      4669
      4661      4660      4663      4664      4661      4660      4663      4665
      4661      4660      4663      4666      4662      4660      4663      4664
      4662      4660      4663      4665      4662      4660      4663      4666
      4663      4666      4669      4670      4663      4666      4669      4671
      4663      4666      4669      4672      4664      4663      4666      4667
      4664      4663      4666      4668      4664      4663      4666      4669
      4665      4663      4666      4667      4665      4663      4666      4668
      4665      4663      4666      4669      4666      4669      4672      4673
      4666      4669      4672      4674      4666      4669      4672      4675
      4667      4666      4669      4670      4667      4666      4669      4671
      4667      4666      4669      4672      4668      4666      4669      4670
      4668      4666      4669      4671      4668      4666      4669      4672
      4669      4672      4675      4676      4669      4672      4675      4677
      4669      4672      4675      4678      4670      4669      4672      4673
      4670      4669      4672      4674      4670      4669      4672      4675
      4671      4669      4672      4673      4671      4669      4672      4674
      4671      4669      4672      4675      4672      4675      4678      4679
      4672      4675      4678      4680      4672      4675      4678      4681
      4673      4672      4675      4676      4673      4672      4675      4677
      4673      4672      4675      4678      4674      4672      4675      4676
      4674      4672      4675      4677      4674      4672      4675      4678
      4676      4675      4678      4679      4676      4675      4678      4680
      4676      4675      4678      4681      4677      4675      4678      4679
      4677      4675      4678      4680      4677      4675      4678      4681
      4682      4685      4688      4689      4682      4685      4688      4690
      4682      4685      4688      4691      4683      4682      4685      4686
      4683      4682      4685      4687      4683      4682      4685      4688
      4684      4682      4685      4686      4684      4682      4685      4687
      4684      4682      4685      4688      4685      4688      4691      4692
      4685      4688      4691      4693      4685      4688      4691      4694
      4686      4685      4688      4689      4686      4685      4688      4690
      4686      4685      4688      4691      4687      4685      4688      4689
      4687      4685      4688      4690      4687      4685      4688      4691
      4688      4691      4694      4695      4688      4691      4694      4696
      4688      4691      4694      4697      4689      4688      4691      4692
      4689      4688      4691      4693      4689      4688      4691      4694
      4690      4688      4691      4692      4690      4688      4691      4693
      4690      4688      4691      4694      4691      4694      4697      4698
      4691      4694      4697      4699      4691      4694      4697      4700
      4692      4691      4694      4695      4692      4691      4694      4696
      4692      4691      4694      4697      4693      4691      4694      4695
      4693      4691      4694      4696      4693      4691      4694      4697
      4694      4697      4700      4701      4694      4697      4700      4702
      4694      4697      4700      4703      4695      4694      4697      4698
      4695      4694      4697      4699      4695      4694      4697      4700
      4696      4694      4697      4698      4696      4694      4697      4699
      4696      4694      4697      4700      4697      4700      4703      4704
      4697      4700      4703      4705      4697      4700      4703      4706
      4698      4697      4700      4701      4698      4697      4700      4702
      4698      4697      4700      4703      4699      4697      4700      4701
      4699      4697      4700      4702      4699      4697      4700      4703
      4700      4703      4706      4707      4700      4703      4706      4708
      4700      4703      4706      4709      4701      4700      4703      4704
      4701      4700      4703      4705      4701      4700      4703      4706
      4702      4700      4703      4704      4702      4700      4703      4705
      4702      4700      4703      4706      4703      4706      4709      4710
      4703      4706      4709      4711      4703      4706      4709      4712
      4704      4703      4706      4707      4704      4703      4706      4708
      4704      4703      4706      4709      4705      4703      4706      4707
      4705      4703      4706      4708      4705      4703      4706      4709
      4706      4709      4712      4713      4706      4709      4712      4714
      4706      4709      4712      4715      4707      4706      4709      4710
      4707      4706      4709      4711      4707      4706      4709      4712
      4708      4706      4709      4710      4708      4706      4709      4711
      4708      4706      4709      4712      4709      4712      4715      4716
      4709      4712      4715      4717      4709      4712      4715      4718
      4710      4709      4712      4713      4710      4709      4712      4714
      4710      4709      4712      4715      4711      4709      4712      4713
      4711      4709      4712      4714      4711      4709      4712      4715
      4712      4715      4718      4719      4712      4715      4718      4720
      4712      4715      4718      4721      4713      4712      4715      4716
      4713      4712      4715      4717      4713      4712      4715      4718
      4714      4712      4715      4716      4714      4712      4715      4717
      4714      4712      4715      4718      4715      4718      4721      4722
      4715      4718      4721      4723      4715      4718      4721      4724
      4716      4715      4718      4719      4716      4715      4718      4720
      4716      4715      4718      4721      4717      4715      4718      4719
      4717      4715      4718      4720      4717      4715      4718      4721
      4719      4718      4721      4722      4719      4718      4721      4723
      4719      4718      4721      4724      4720      4718      4721      4722
      4720      4718      4721      4723      4720      4718      4721      4724
      4725      4726      4741      4742      4725      4726      4741      4743
      4725      4726      4741      4747      4726      4725      4729      4730
      4726      4725      4729      4731      4726      4725      4729      4732
      4726      4725      4733      4734      4726      4725      4733      4735
      4726      4725      4733      4736      4726      4725      4737      4738
      4726      4725      4737      4739      4726      4725      4737      4740
      4726      4741      4747      4744      4727      4726      4725      4729
      4727      4726      4725      4733      4727      4726      4725      4737
      4727      4726      4741      4742      4727      4726      4741      4743
      4727      4726      4741      4747      4728      4726      4725      4729
      4728      4726      4725      4733      4728      4726      4725      4737
      4728      4726      4741      4742      4728      4726      4741      4743
      4728      4726      4741      4747      4729      4725      4726      4741
      4729      4725      4733      4734      4729      4725      4733      4735
      4729      4725      4733      4736      4729      4725      4737      4738
      4729      4725      4737      4739      4729      4725      4737      4740
      4730      4729      4725      4733      4730      4729      4725      4737
      4731      4729      4725      4733      4731      4729      4725      4737
      4732      4729      4725      4733      4732      4729      4725      4737
      4733      4725      4726      4741      4733      4725      4737      4738
      4733      4725      4737      4739      4733      4725      4737      4740
      4734      4733      4725      4737      4735      4733      4725      4737
      4736      4733      4725      4737      4737      4725      4726      4741
      4741      4747      4744      4745      4741      4747      4744      4746
      4741      4747      4744      4748      4742      4741      4747      4744
      4743      4741      4747      4744      4744      4748      4749      4750
      4744      4748      4749      4751      4744      4748      4749      4752
      4745      4744      4748      4749      4746      4744      4748      4749
      4747      4744      4748      4749      4748      4749      4752      4753
      4748      4749      4752      4754      4748      4749      4752      4760
      4749      4752      4754      4755      4749      4752      4760      4761
      4749      4752      4760      4762      4749      4752      4760      4763
      4750      4749      4752      4753      4750      4749      4752      4754
      4750      4749      4752      4760      4751      4749      4752      4753
      4751      4749      4752      4754      4751      4749      4752      4760
      4752      4754      4755      4756      4752      4754      4755      4757
      4752      4760      4763      4764      4753      4752      4754      4755
      4753      4752      4760      4761      4753      4752      4760      4762
      4753      4752      4760      4763      4754      4752      4760      4761
      4754      4752      4760      4762      4754      4752      4760      4763
      4754      4755      4757      4758      4754      4755      4757      4759
      4754      4755      4757      4769      4755      4754      4752      4760
      4755      4757      4769      4770      4755      4757      4769      4771
      4755      4757      4769      4772      4756      4755      4757      4758
      4756      4755      4757      4759      4756      4755      4757      4769
      4757      4769      4772      4773      4757      4769      4772      4774
      4757      4769      4772      4775      4758      4757      4769      4770
      4758      4757      4769      4771      4758      4757      4769      4772
      4759      4757      4769      4770      4759      4757      4769      4771
      4759      4757      4769      4772      4760      4763      4764      4765
      4760      4763      4764      4766      4761      4760      4763      4764
      4762      4760      4763      4764      4763      4764      4766      4767
      4763      4764      4766      4768      4763      4764      4766      4816
      4764      4766      4816      4817      4764      4766      4816      4818
      4764      4766      4816      4819      4765      4764      4766      4767
      4765      4764      4766      4768      4765      4764      4766      4816
      4766      4816      4819      4820      4766      4816      4819      4821
      4766      4816      4819      4822      4767      4766      4816      4817
      4767      4766      4816      4818      4767      4766      4816      4819
      4768      4766      4816      4817      4768      4766      4816      4818
      4768      4766      4816      4819      4769      4772      4775      4776
      4769      4772      4775      4777      4769      4772      4775      4778
      4770      4769      4772      4773      4770      4769      4772      4774
      4770      4769      4772      4775      4771      4769      4772      4773
      4771      4769      4772      4774      4771      4769      4772      4775
      4772      4775      4778      4779      4772      4775      4778      4780
      4772      4775      4778      4781      4773      4772      4775      4776
      4773      4772      4775      4777      4773      4772      4775      4778
      4774      4772      4775      4776      4774      4772      4775      4777
      4774      4772      4775      4778      4775      4778      4781      4782
      4775      4778      4781      4783      4775      4778      4781      4784
      4776      4775      4778      4779      4776      4775      4778      4780
      4776      4775      4778      4781      4777      4775      4778      4779
      4777      4775      4778      4780      4777      4775      4778      4781
      4778      4781      4784      4785      4778      4781      4784      4786
      4778      4781      4784      4787      4779      4778      4781      4782
      4779      4778      4781      4783      4779      4778      4781      4784
      4780      4778      4781      4782      4780      4778      4781      4783
      4780      4778      4781      4784      4781      4784      4787      4788
      4781      4784      4787      4789      4782      4781      4784      4785
      4782      4781      4784      4786      4782      4781      4784      4787
      4783      4781      4784      4785      4783      4781      4784      4786
      4783      4781      4784      4787      4784      4787      4789      4790
      4784      4787      4789      4791      4785      4784      4787      4788
      4785      4784      4787      4789      4786      4784      4787      4788
      4786      4784      4787      4789      4787      4789      4791      4792
      4787      4789      4791      4793      4787      4789      4791      4794
      4788      4787      4789      4790      4788      4787      4789      4791
      4789      4791      4794      4795      4789      4791      4794      4796
      4789      4791      4794      4797      4790      4789      4791      4792
      4790      4789      4791      4793      4790      4789      4791      4794
      4791      4794      4797      4798      4791      4794      4797      4799
      4791      4794      4797      4800      4792      4791      4794      4795
      4792      4791      4794      4796      4792      4791      4794      4797
      4793      4791      4794      4795      4793      4791      4794      4796
      4793      4791      4794      4797      4794      4797      4800      4801
      4794      4797      4800      4802      4794      4797      4800      4803
      4795      4794      4797      4798      4795      4794      4797      4799
      4795      4794      4797      4800      4796      4794      4797      4798
      4796      4794      4797      4799      4796      4794      4797      4800
      4797      4800      4803      4804      4797      4800      4803      4805
      4797      4800      4803      4806      4798      4797      4800      4801
      4798      4797      4800      4802      4798      4797      4800      4803
      4799      4797      4800      4801      4799      4797      4800      4802
      4799      4797      4800      4803      4800      4803      4806      4807
      4800      4803      4806      4808      4800      4803      4806      4809
      4801      4800      4803      4804      4801      4800      4803      4805
      4801      4800      4803      4806      4802      4800      4803      4804
      4802      4800      4803      4805      4802      4800      4803      4806
      4803      4806      4809      4810      4803      4806      4809      4811
      4803      4806      4809      4812      4804      4803      4806      4807
      4804      4803      4806      4808      4804      4803      4806      4809
      4805      4803      4806      4807      4805      4803      4806      4808
      4805      4803      4806      4809      4806      4809      4812      4813
      4806      4809      4812      4814      4806      4809      4812      4815
      4807      4806      4809      4810      4807      4806      4809      4811
      4807      4806      4809      4812      4808      4806      4809      4810
      4808      4806      4809      4811      4808      4806      4809      4812
      4810      4809      4812      4813      4810      4809      4812      4814
      4810      4809      4812      4815      4811      4809      4812      4813
      4811      4809      4812      4814      4811      4809      4812      4815
      4816      4819      4822      4823      4816      4819      4822      4824
      4816      4819      4822      4825      4817      4816      4819      4820
      4817      4816      4819      4821      4817      4816      4819      4822
      4818      4816      4819      4820      4818      4816      4819      4821
      4818      4816      4819      4822      4819      4822      4825      4826
      4819      4822      4825      4827      4819      4822      4825      4828
      4820      4819      4822      4823      4820      4819      4822      4824
      4820      4819      4822      4825      4821      4819      4822      4823
      4821      4819      4822      4824      4821      4819      4822      4825
      4822      4825      4828      4829      4822      4825      4828      4830
      4822      4825      4828      4831      4823      4822      4825      4826
      4823      4822      4825      4827      4823      4822      4825      4828
      4824      4822      4825      4826      4824      4822      4825      4827
      4824      4822      4825      4828      4825      4828      4831      4832
      4825      4828      4831      4833      4825      4828      4831      4834
      4826      4825      4828      4829      4826      4825      4828      4830
      4826      4825      4828      4831      4827      4825      4828      4829
      4827      4825      4828      4830      4827      4825      4828      4831
      4828      4831      4834      4835      4828      4831      4834      4836
      4828      4831      4834      4837      4829      4828      4831      4832
      4829      4828      4831      4833      4829      4828      4831      4834
      4830      4828      4831      4832      4830      4828      4831      4833
      4830      4828      4831      4834      4831      4834      4837      4838
      4831      4834      4837      4839      4831      4834      4837      4840
      4832      4831      4834      4835      4832      4831      4834      4836
      4832      4831      4834      4837      4833      4831      4834      4835
      4833      4831      4834      4836      4833      4831      4834      4837
      4834      4837      4840      4841      4834      4837      4840      4842
      4834      4837      4840      4843      4835      4834      4837      4838
      4835      4834      4837      4839      4835      4834      4837      4840
      4836      4834      4837      4838      4836      4834      4837      4839
      4836      4834      4837      4840      4837      4840      4843      4844
      4837      4840      4843      4845      4837      4840      4843      4846
      4838      4837      4840      4841      4838      4837      4840      4842
      4838      4837      4840      4843      4839      4837      4840      4841
      4839      4837      4840      4842      4839      4837      4840      4843
      4840      4843      4846      4847      4840      4843      4846      4848
      4840      4843      4846      4849      4841      4840      4843      4844
      4841      4840      4843      4845      4841      4840      4843      4846
      4842      4840      4843      4844      4842      4840      4843      4845
      4842      4840      4843      4846      4843      4846      4849      4850
      4843      4846      4849      4851      4843      4846      4849      4852
      4844      4843      4846      4847      4844      4843      4846      4848
      4844      4843      4846      4849      4845      4843      4846      4847
      4845      4843      4846      4848      4845      4843      4846      4849
      4846      4849      4852      4853      4846      4849      4852      4854
      4846      4849      4852      4855      4847      4846      4849      4850
      4847      4846      4849      4851      4847      4846      4849      4852
      4848      4846      4849      4850      4848      4846      4849      4851
      4848      4846      4849      4852      4849      4852      4855      4856
      4849      4852      4855      4857      4849      4852      4855      4858
      4850      4849      4852      4853      4850      4849      4852      4854
      4850      4849      4852      4855      4851      4849      4852      4853
      4851      4849      4852      4854      4851      4849      4852      4855
      4853      4852      4855      4856      4853      4852      4855      4857
      4853      4852      4855      4858      4854      4852      4855      4856
      4854      4852      4855      4857      4854      4852      4855      4858
      4859      4860      4875      4876      4859      4860      4875      4877
      4859      4860      4875      4881      4860      4859      4863      4864
      4860      4859      4863      4865      4860      4859      4863      4866
      4860      4859      4867      4868      4860      4859      4867      4869
      4860      4859      4867      4870      4860      4859      4871      4872
      4860      4859      4871      4873      4860      4859      4871      4874
      4860      4875      4881      4878      4861      4860      4859      4863
      4861      4860      4859      4867      4861      4860      4859      4871
      4861      4860      4875      4876      4861      4860      4875      4877
      4861      4860      4875      4881      4862      4860      4859      4863
      4862      4860      4859      4867      4862      4860      4859      4871
      4862      4860      4875      4876      4862      4860      4875      4877
      4862      4860      4875      4881      4863      4859      4860      4875
      4863      4859      4867      4868      4863      4859      4867      4869
      4863      4859      4867      4870      4863      4859      4871      4872
      4863      4859      4871      4873      4863      4859      4871      4874
      4864      4863      4859      4867      4864      4863      4859      4871
      4865      4863      4859      4867      4865      4863      4859      4871
      4866      4863      4859      4867      4866      4863      4859      4871
      4867      4859      4860      4875      4867      4859      4871      4872
      4867      4859      4871      4873      4867      4859      4871      4874
      4868      4867      4859      4871      4869      4867      4859      4871
      4870      4867      4859      4871      4871      4859      4860      4875
      4875      4881      4878      4879      4875      4881      4878      4880
      4875      4881      4878      4882      4876      4875      4881      4878
      4877      4875      4881      4878      4878      4882      4883      4884
      4878      4882      4883      4885      4878      4882      4883      4886
      4879      4878      4882      4883      4880      4878      4882      4883
      4881      4878      4882      4883      4882      4883      4886      4887
      4882      4883      4886      4888      4882      4883      4886      4894
      4883      4886      4888      4889      4883      4886      4894      4895
      4883      4886      4894      4896      4883      4886      4894      4897
      4884      4883      4886      4887      4884      4883      4886      4888
      4884      4883      4886      4894      4885      4883      4886      4887
      4885      4883      4886      4888      4885      4883      4886      4894
      4886      4888      4889      4890      4886      4888      4889      4891
      4886      4894      4897      4898      4887      4886      4888      4889
      4887      4886      4894      4895      4887      4886      4894      4896
      4887      4886      4894      4897      4888      4886      4894      4895
      4888      4886      4894      4896      4888      4886      4894      4897
      4888      4889      4891      4892      4888      4889      4891      4893
      4888      4889      4891      4903      4889      4888      4886      4894
      4889      4891      4903      4904      4889      4891      4903      4905
      4889      4891      4903      4906      4890      4889      4891      4892
      4890      4889      4891      4893      4890      4889      4891      4903
      4891      4903      4906      4907      4891      4903      4906      4908
      4891      4903      4906      4909      4892      4891      4903      4904
      4892      4891      4903      4905      4892      4891      4903      4906
      4893      4891      4903      4904      4893      4891      4903      4905
      4893      4891      4903      4906      4894      4897      4898      4899
      4894      4897      4898      4900      4895      4894      4897      4898
      4896      4894      4897      4898      4897      4898      4900      4901
      4897      4898      4900      4902      4897      4898      4900      4950
      4898      4900      4950      4951      4898      4900      4950      4952
      4898      4900      4950      4953      4899      4898      4900      4901
      4899      4898      4900      4902      4899      4898      4900      4950
      4900      4950      4953      4954      4900      4950      4953      4955
      4900      4950      4953      4956      4901      4900      4950      4951
      4901      4900      4950      4952      4901      4900      4950      4953
      4902      4900      4950      4951      4902      4900      4950      4952
      4902      4900      4950      4953      4903      4906      4909      4910
      4903      4906      4909      4911      4903      4906      4909      4912
      4904      4903      4906      4907      4904      4903      4906      4908
      4904      4903      4906      4909      4905      4903      4906      4907
      4905      4903      4906      4908      4905      4903      4906      4909
      4906      4909      4912      4913      4906      4909      4912      4914
      4906      4909      4912      4915      4907      4906      4909      4910
      4907      4906      4909      4911      4907      4906      4909      4912
      4908      4906      4909      4910      4908      4906      4909      4911
      4908      4906      4909      4912      4909      4912      4915      4916
      4909      4912      4915      4917      4909      4912      4915      4918
      4910      4909      4912      4913      4910      4909      4912      4914
      4910      4909      4912      4915      4911      4909      4912      4913
      4911      4909      4912      4914      4911      4909      4912      4915
      4912      4915      4918      4919      4912      4915      4918      4920
      4912      4915      4918      4921      4913      4912      4915      4916
      4913      4912      4915      4917      4913      4912      4915      4918
      4914      4912      4915      4916      4914      4912      4915      4917
      4914      4912      4915      4918      4915      4918      4921      4922
      4915      4918      4921      4923      4916      4915      4918      4919
      4916      4915      4918      4920      4916      4915      4918      4921
      4917      4915      4918      4919      4917      4915      4918      4920
      4917      4915      4918      4921      4918      4921      4923      4924
      4918      4921      4923      4925      4919      4918      4921      4922
      4919      4918      4921      4923      4920      4918      4921      4922
      4920      4918      4921      4923      4921      4923      4925      4926
      4921      4923      4925      4927      4921      4923      4925      4928
      4922      4921      4923      4924      4922      4921      4923      4925
      4923      4925      4928      4929      4923      4925      4928      4930
      4923      4925      4928      4931      4924      4923      4925      4926
      4924      4923      4925      4927      4924      4923      4925      4928
      4925      4928      4931      4932      4925      4928      4931      4933
      4925      4928      4931      4934      4926      4925      4928      4929
      4926      4925      4928      4930      4926      4925      4928      4931
      4927      4925      4928      4929      4927      4925      4928      4930
      4927      4925      4928      4931      4928      4931      4934      4935
      4928      4931      4934      4936      4928      4931      4934      4937
      4929      4928      4931      4932      4929      4928      4931      4933
      4929      4928      4931      4934      4930      4928      4931      4932
      4930      4928      4931      4933      4930      4928      4931      4934
      4931      4934      4937      4938      4931      4934      4937      4939
      4931      4934      4937      4940      4932      4931      4934      4935
      4932      4931      4934      4936      4932      4931      4934      4937
      4933      4931      4934      4935      4933      4931      4934      4936
      4933      4931      4934      4937      4934      4937      4940      4941
      4934      4937      4940      4942      4934      4937      4940      4943
      4935      4934      4937      4938      4935      4934      4937      4939
      4935      4934      4937      4940      4936      4934      4937      4938
      4936      4934      4937      4939      4936      4934      4937      4940
      4937      4940      4943      4944      4937      4940      4943      4945
      4937      4940      4943      4946      4938      4937      4940      4941
      4938      4937      4940      4942      4938      4937      4940      4943
      4939      4937      4940      4941      4939      4937      4940      4942
      4939      4937      4940      4943      4940      4943      4946      4947
      4940      4943      4946      4948      4940      4943      4946      4949
      4941      4940      4943      4944      4941      4940      4943      4945
      4941      4940      4943      4946      4942      4940      4943      4944
      4942      4940      4943      4945      4942      4940      4943      4946
      4944      4943      4946      4947      4944      4943      4946      4948
      4944      4943      4946      4949      4945      4943      4946      4947
      4945      4943      4946      4948      4945      4943      4946      4949
      4950      4953      4956      4957      4950      4953      4956      4958
      4950      4953      4956      4959      4951      4950      4953      4954
      4951      4950      4953      4955      4951      4950      4953      4956
      4952      4950      4953      4954      4952      4950      4953      4955
      4952      4950      4953      4956      4953      4956      4959      4960
      4953      4956      4959      4961      4953      4956      4959      4962
      4954      4953      4956      4957      4954      4953      4956      4958
      4954      4953      4956      4959      4955      4953      4956      4957
      4955      4953      4956      4958      4955      4953      4956      4959
      4956      4959      4962      4963      4956      4959      4962      4964
      4956      4959      4962      4965      4957      4956      4959      4960
      4957      4956      4959      4961      4957      4956      4959      4962
      4958      4956      4959      4960      4958      4956      4959      4961
      4958      4956      4959      4962      4959      4962      4965      4966
      4959      4962      4965      4967      4959      4962      4965      4968
      4960      4959      4962      4963      4960      4959      4962      4964
      4960      4959      4962      4965      4961      4959      4962      4963
      4961      4959      4962      4964      4961      4959      4962      4965
      4962      4965      4968      4969      4962      4965      4968      4970
      4962      4965      4968      4971      4963      4962      4965      4966
      4963      4962      4965      4967      4963      4962      4965      4968
      4964      4962      4965      4966      4964      4962      4965      4967
      4964      4962      4965      4968      4965      4968      4971      4972
      4965      4968      4971      4973      4965      4968      4971      4974
      4966      4965      4968      4969      4966      4965      4968      4970
      4966      4965      4968      4971      4967      4965      4968      4969
      4967      4965      4968      4970      4967      4965      4968      4971
      4968      4971      4974      4975      4968      4971      4974      4976
      4968      4971      4974      4977      4969      4968      4971      4972
      4969      4968      4971      4973      4969      4968      4971      4974
      4970      4968      4971      4972      4970      4968      4971      4973
      4970      4968      4971      4974      4971      4974      4977      4978
      4971      4974      4977      4979      4971      4974      4977      4980
      4972      4971      4974      4975      4972      4971      4974      4976
      4972      4971      4974      4977      4973      4971      4974      4975
      4973      4971      4974      4976      4973      4971      4974      4977
      4974      4977      4980      4981      4974      4977      4980      4982
      4974      4977      4980      4983      4975      4974      4977      4978
      4975      4974      4977      4979      4975      4974      4977      4980
      4976      4974      4977      4978      4976      4974      4977      4979
      4976      4974      4977      4980      4977      4980      4983      4984
      4977      4980      4983      4985      4977      4980      4983      4986
      4978      4977      4980      4981      4978      4977      4980      4982
      4978      4977      4980      4983      4979      4977      4980      4981
      4979      4977      4980      4982      4979      4977      4980      4983
      4980      4983      4986      4987      4980      4983      4986      4988
      4980      4983      4986      4989      4981      4980      4983      4984
      4981      4980      4983      4985      4981      4980      4983      4986
      4982      4980      4983      4984      4982      4980      4983      4985
      4982      4980      4983      4986      4983      4986      4989      4990
      4983      4986      4989      4991      4983      4986      4989      4992
      4984      4983      4986      4987      4984      4983      4986      4988
      4984      4983      4986      4989      4985      4983      4986      4987
      4985      4983      4986      4988      4985      4983      4986      4989
      4987      4986      4989      4990      4987      4986      4989      4991
      4987      4986      4989      4992      4988      4986      4989      4990
      4988      4986      4989      4991      4988      4986      4989      4992
      4993      4994      5009      5010      4993      4994      5009      5011
      4993      4994      5009      5015      4994      4993      4997      4998
      4994      4993      4997      4999      4994      4993      4997      5000
      4994      4993      5001      5002      4994      4993      5001      5003
      4994      4993      5001      5004      4994      4993      5005      5006
      4994      4993      5005      5007      4994      4993      5005      5008
      4994      5009      5015      5012      4995      4994      4993      4997
      4995      4994      4993      5001      4995      4994      4993      5005
      4995      4994      5009      5010      4995      4994      5009      5011
      4995      4994      5009      5015      4996      4994      4993      4997
      4996      4994      4993      5001      4996      4994      4993      5005
      4996      4994      5009      5010      4996      4994      5009      5011
      4996      4994      5009      5015      4997      4993      4994      5009
      4997      4993      5001      5002      4997      4993      5001      5003
      4997      4993      5001      5004      4997      4993      5005      5006
      4997      4993      5005      5007      4997      4993      5005      5008
      4998      4997      4993      5001      4998      4997      4993      5005
      4999      4997      4993      5001      4999      4997      4993      5005
      5000      4997      4993      5001      5000      4997      4993      5005
      5001      4993      4994      5009      5001      4993      5005      5006
      5001      4993      5005      5007      5001      4993      5005      5008
      5002      5001      4993      5005      5003      5001      4993      5005
      5004      5001      4993      5005      5005      4993      4994      5009
      5009      5015      5012      5013      5009      5015      5012      5014
      5009      5015      5012      5016      5010      5009      5015      5012
      5011      5009      5015      5012      5012      5016      5017      5018
      5012      5016      5017      5019      5012      5016      5017      5020
      5013      5012      5016      5017      5014      5012      5016      5017
      5015      5012      5016      5017      5016      5017      5020      5021
      5016      5017      5020      5022      5016      5017      5020      5028
      5017      5020      5022      5023      5017      5020      5028      5029
      5017      5020      5028      5030      5017      5020      5028      5031
      5018      5017      5020      5021      5018      5017      5020      5022
      5018      5017      5020      5028      5019      5017      5020      5021
      5019      5017      5020      5022      5019      5017      5020      5028
      5020      5022      5023      5024      5020      5022      5023      5025
      5020      5028      5031      5032      5021      5020      5022      5023
      5021      5020      5028      5029      5021      5020      5028      5030
      5021      5020      5028      5031      5022      5020      5028      5029
      5022      5020      5028      5030      5022      5020      5028      5031
      5022      5023      5025      5026      5022      5023      5025      5027
      5022      5023      5025      5037      5023      5022      5020      5028
      5023      5025      5037      5038      5023      5025      5037      5039
      5023      5025      5037      5040      5024      5023      5025      5026
      5024      5023      5025      5027      5024      5023      5025      5037
      5025      5037      5040      5041      5025      5037      5040      5042
      5025      5037      5040      5043      5026      5025      5037      5038
      5026      5025      5037      5039      5026      5025      5037      5040
      5027      5025      5037      5038      5027      5025      5037      5039
      5027      5025      5037      5040      5028      5031      5032      5033
      5028      5031      5032      5034      5029      5028      5031      5032
      5030      5028      5031      5032      5031      5032      5034      5035
      5031      5032      5034      5036      5031      5032      5034      5084
      5032      5034      5084      5085      5032      5034      5084      5086
      5032      5034      5084      5087      5033      5032      5034      5035
      5033      5032      5034      5036      5033      5032      5034      5084
      5034      5084      5087      5088      5034      5084      5087      5089
      5034      5084      5087      5090      5035      5034      5084      5085
      5035      5034      5084      5086      5035      5034      5084      5087
      5036      5034      5084      5085      5036      5034      5084      5086
      5036      5034      5084      5087      5037      5040      5043      5044
      5037      5040      5043      5045      5037      5040      5043      5046
      5038      5037      5040      5041      5038      5037      5040      5042
      5038      5037      5040      5043      5039      5037      5040      5041
      5039      5037      5040      5042      5039      5037      5040      5043
      5040      5043      5046      5047      5040      5043      5046      5048
      5040      5043      5046      5049      5041      5040      5043      5044
      5041      5040      5043      5045      5041      5040      5043      5046
      5042      5040      5043      5044      5042      5040      5043      5045
      5042      5040      5043      5046      5043      5046      5049      5050
      5043      5046      5049      5051      5043      5046      5049      5052
      5044      5043      5046      5047      5044      5043      5046      5048
      5044      5043      5046      5049      5045      5043      5046      5047
      5045      5043      5046      5048      5045      5043      5046      5049
      5046      5049      5052      5053      5046      5049      5052      5054
      5046      5049      5052      5055      5047      5046      5049      5050
      5047      5046      5049      5051      5047      5046      5049      5052
      5048      5046      5049      5050      5048      5046      5049      5051
      5048      5046      5049      5052      5049      5052      5055      5056
      5049      5052      5055      5057      5050      5049      5052      5053
      5050      5049      5052      5054      5050      5049      5052      5055
      5051      5049      5052      5053      5051      5049      5052      5054
      5051      5049      5052      5055      5052      5055      5057      5058
      5052      5055      5057      5059      5053      5052      5055      5056
      5053      5052      5055      5057      5054      5052      5055      5056
      5054      5052      5055      5057      5055      5057      5059      5060
      5055      5057      5059      5061      5055      5057      5059      5062
      5056      5055      5057      5058      5056      5055      5057      5059
      5057      5059      5062      5063      5057      5059      5062      5064
      5057      5059      5062      5065      5058      5057      5059      5060
      5058      5057      5059      5061      5058      5057      5059      5062
      5059      5062      5065      5066      5059      5062      5065      5067
      5059      5062      5065      5068      5060      5059      5062      5063
      5060      5059      5062      5064      5060      5059      5062      5065
      5061      5059      5062      5063      5061      5059      5062      5064
      5061      5059      5062      5065      5062      5065      5068      5069
      5062      5065      5068      5070      5062      5065      5068      5071
      5063      5062      5065      5066      5063      5062      5065      5067
      5063      5062      5065      5068      5064      5062      5065      5066
      5064      5062      5065      5067      5064      5062      5065      5068
      5065      5068      5071      5072      5065      5068      5071      5073
      5065      5068      5071      5074      5066      5065      5068      5069
      5066      5065      5068      5070      5066      5065      5068      5071
      5067      5065      5068      5069      5067      5065      5068      5070
      5067      5065      5068      5071      5068      5071      5074      5075
      5068      5071      5074      5076      5068      5071      5074      5077
      5069      5068      5071      5072      5069      5068      5071      5073
      5069      5068      5071      5074      5070      5068      5071      5072
      5070      5068      5071      5073      5070      5068      5071      5074
      5071      5074      5077      5078      5071      5074      5077      5079
      5071      5074      5077      5080      5072      5071      5074      5075
      5072      5071      5074      5076      5072      5071      5074      5077
      5073      5071      5074      5075      5073      5071      5074      5076
      5073      5071      5074      5077      5074      5077      5080      5081
      5074      5077      5080      5082      5074      5077      5080      5083
      5075      5074      5077      5078      5075      5074      5077      5079
      5075      5074      5077      5080      5076      5074      5077      5078
      5076      5074      5077      5079      5076      5074      5077      5080
      5078      5077      5080      5081      5078      5077      5080      5082
      5078      5077      5080      5083      5079      5077      5080      5081
      5079      5077      5080      5082      5079      5077      5080      5083
      5084      5087      5090      5091      5084      5087      5090      5092
      5084      5087      5090      5093      5085      5084      5087      5088
      5085      5084      5087      5089      5085      5084      5087      5090
      5086      5084      5087      5088      5086      5084      5087      5089
      5086      5084      5087      5090      5087      5090      5093      5094
      5087      5090      5093      5095      5087      5090      5093      5096
      5088      5087      5090      5091      5088      5087      5090      5092
      5088      5087      5090      5093      5089      5087      5090      5091
      5089      5087      5090      5092      5089      5087      5090      5093
      5090      5093      5096      5097      5090      5093      5096      5098
      5090      5093      5096      5099      5091      5090      5093      5094
      5091      5090      5093      5095      5091      5090      5093      5096
      5092      5090      5093      5094      5092      5090      5093      5095
      5092      5090      5093      5096      5093      5096      5099      5100
      5093      5096      5099      5101      5093      5096      5099      5102
      5094      5093      5096      5097      5094      5093      5096      5098
      5094      5093      5096      5099      5095      5093      5096      5097
      5095      5093      5096      5098      5095      5093      5096      5099
      5096      5099      5102      5103      5096      5099      5102      5104
      5096      5099      5102      5105      5097      5096      5099      5100
      5097      5096      5099      5101      5097      5096      5099      5102
      5098      5096      5099      5100      5098      5096      5099      5101
      5098      5096      5099      5102      5099      5102      5105      5106
      5099      5102      5105      5107      5099      5102      5105      5108
      5100      5099      5102      5103      5100      5099      5102      5104
      5100      5099      5102      5105      5101      5099      5102      5103
      5101      5099      5102      5104      5101      5099      5102      5105
      5102      5105      5108      5109      5102      5105      5108      5110
      5102      5105      5108      5111      5103      5102      5105      5106
      5103      5102      5105      5107      5103      5102      5105      5108
      5104      5102      5105      5106      5104      5102      5105      5107
      5104      5102      5105      5108      5105      5108      5111      5112
      5105      5108      5111      5113      5105      5108      5111      5114
      5106      5105      5108      5109      5106      5105      5108      5110
      5106      5105      5108      5111      5107      5105      5108      5109
      5107      5105      5108      5110      5107      5105      5108      5111
      5108      5111      5114      5115      5108      5111      5114      5116
      5108      5111      5114      5117      5109      5108      5111      5112
      5109      5108      5111      5113      5109      5108      5111      5114
      5110      5108      5111      5112      5110      5108      5111      5113
      5110      5108      5111      5114      5111      5114      5117      5118
      5111      5114      5117      5119      5111      5114      5117      5120
      5112      5111      5114      5115      5112      5111      5114      5116
      5112      5111      5114      5117      5113      5111      5114      5115
      5113      5111      5114      5116      5113      5111      5114      5117
      5114      5117      5120      5121      5114      5117      5120      5122
      5114      5117      5120      5123      5115      5114      5117      5118
      5115      5114      5117      5119      5115      5114      5117      5120
      5116      5114      5117      5118      5116      5114      5117      5119
      5116      5114      5117      5120      5117      5120      5123      5124
      5117      5120      5123      5125      5117      5120      5123      5126
      5118      5117      5120      5121      5118      5117      5120      5122
      5118      5117      5120      5123      5119      5117      5120      5121
      5119      5117      5120      5122      5119      5117      5120      5123
      5121      5120      5123      5124      5121      5120      5123      5125
      5121      5120      5123      5126      5122      5120      5123      5124
      5122      5120      5123      5125      5122      5120      5123      5126
      5127      5128      5143      5144      5127      5128      5143      5145
      5127      5128      5143      5149      5128      5127      5131      5132
      5128      5127      5131      5133      5128      5127      5131      5134
      5128      5127      5135      5136      5128      5127      5135      5137
      5128      5127      5135      5138      5128      5127      5139      5140
      5128      5127      5139      5141      5128      5127      5139      5142
      5128      5143      5149      5146      5129      5128      5127      5131
      5129      5128      5127      5135      5129      5128      5127      5139
      5129      5128      5143      5144      5129      5128      5143      5145
      5129      5128      5143      5149      5130      5128      5127      5131
      5130      5128      5127      5135      5130      5128      5127      5139
      5130      5128      5143      5144      5130      5128      5143      5145
      5130      5128      5143      5149      5131      5127      5128      5143
      5131      5127      5135      5136      5131      5127      5135      5137
      5131      5127      5135      5138      5131      5127      5139      5140
      5131      5127      5139      5141      5131      5127      5139      5142
      5132      5131      5127      5135      5132      5131      5127      5139
      5133      5131      5127      5135      5133      5131      5127      5139
      5134      5131      5127      5135      5134      5131      5127      5139
      5135      5127      5128      5143      5135      5127      5139      5140
      5135      5127      5139      5141      5135      5127      5139      5142
      5136      5135      5127      5139      5137      5135      5127      5139
      5138      5135      5127      5139      5139      5127      5128      5143
      5143      5149      5146      5147      5143      5149      5146      5148
      5143      5149      5146      5150      5144      5143      5149      5146
      5145      5143      5149      5146      5146      5150      5151      5152
      5146      5150      5151      5153      5146      5150      5151      5154
      5147      5146      5150      5151      5148      5146      5150      5151
      5149      5146      5150      5151      5150      5151      5154      5155
      5150      5151      5154      5156      5150      5151      5154      5162
      5151      5154      5156      5157      5151      5154      5162      5163
      5151      5154      5162      5164      5151      5154      5162      5165
      5152      5151      5154      5155      5152      5151      5154      5156
      5152      5151      5154      5162      5153      5151      5154      5155
      5153      5151      5154      5156      5153      5151      5154      5162
      5154      5156      5157      5158      5154      5156      5157      5159
      5154      5162      5165      5166      5155      5154      5156      5157
      5155      5154      5162      5163      5155      5154      5162      5164
      5155      5154      5162      5165      5156      5154      5162      5163
      5156      5154      5162      5164      5156      5154      5162      5165
      5156      5157      5159      5160      5156      5157      5159      5161
      5156      5157      5159      5171      5157      5156      5154      5162
      5157      5159      5171      5172      5157      5159      5171      5173
      5157      5159      5171      5174      5158      5157      5159      5160
      5158      5157      5159      5161      5158      5157      5159      5171
      5159      5171      5174      5175      5159      5171      5174      5176
      5159      5171      5174      5177      5160      5159      5171      5172
      5160      5159      5171      5173      5160      5159      5171      5174
      5161      5159      5171      5172      5161      5159      5171      5173
      5161      5159      5171      5174      5162      5165      5166      5167
      5162      5165      5166      5168      5163      5162      5165      5166
      5164      5162      5165      5166      5165      5166      5168      5169
      5165      5166      5168      5170      5165      5166      5168      5218
      5166      5168      5218      5219      5166      5168      5218      5220
      5166      5168      5218      5221      5167      5166      5168      5169
      5167      5166      5168      5170      5167      5166      5168      5218
      5168      5218      5221      5222      5168      5218      5221      5223
      5168      5218      5221      5224      5169      5168      5218      5219
      5169      5168      5218      5220      5169      5168      5218      5221
      5170      5168      5218      5219      5170      5168      5218      5220
      5170      5168      5218      5221      5171      5174      5177      5178
      5171      5174      5177      5179      5171      5174      5177      5180
      5172      5171      5174      5175      5172      5171      5174      5176
      5172      5171      5174      5177      5173      5171      5174      5175
      5173      5171      5174      5176      5173      5171      5174      5177
      5174      5177      5180      5181      5174      5177      5180      5182
      5174      5177      5180      5183      5175      5174      5177      5178
      5175      5174      5177      5179      5175      5174      5177      5180
      5176      5174      5177      5178      5176      5174      5177      5179
      5176      5174      5177      5180      5177      5180      5183      5184
      5177      5180      5183      5185      5177      5180      5183      5186
      5178      5177      5180      5181      5178      5177      5180      5182
      5178      5177      5180      5183      5179      5177      5180      5181
      5179      5177      5180      5182      5179      5177      5180      5183
      5180      5183      5186      5187      5180      5183      5186      5188
      5180      5183      5186      5189      5181      5180      5183      5184
      5181      5180      5183      5185      5181      5180      5183      5186
      5182      5180      5183      5184      5182      5180      5183      5185
      5182      5180      5183      5186      5183      5186      5189      5190
      5183      5186      5189      5191      5184      5183      5186      5187
      5184      5183      5186      5188      5184      5183      5186      5189
      5185      5183      5186      5187      5185      5183      5186      5188
      5185      5183      5186      5189      5186      5189      5191      5192
      5186      5189      5191      5193      5187      5186      5189      5190
      5187      5186      5189      5191      5188      5186      5189      5190
      5188      5186      5189      5191      5189      5191      5193      5194
      5189      5191      5193      5195      5189      5191      5193      5196
      5190      5189      5191      5192      5190      5189      5191      5193
      5191      5193      5196      5197      5191      5193      5196      5198
      5191      5193      5196      5199      5192      5191      5193      5194
      5192      5191      5193      5195      5192      5191      5193      5196
      5193      5196      5199      5200      5193      5196      5199      5201
      5193      5196      5199      5202      5194      5193      5196      5197
      5194      5193      5196      5198      5194      5193      5196      5199
      5195      5193      5196      5197      5195      5193      5196      5198
      5195      5193      5196      5199      5196      5199      5202      5203
      5196      5199      5202      5204      5196      5199      5202      5205
      5197      5196      5199      5200      5197      5196      5199      5201
      5197      5196      5199      5202      5198      5196      5199      5200
      5198      5196      5199      5201      5198      5196      5199      5202
      5199      5202      5205      5206      5199      5202      5205      5207
      5199      5202      5205      5208      5200      5199      5202      5203
      5200      5199      5202      5204      5200      5199      5202      5205
      5201      5199      5202      5203      5201      5199      5202      5204
      5201      5199      5202      5205      5202      5205      5208      5209
      5202      5205      5208      5210      5202      5205      5208      5211
      5203      5202      5205      5206      5203      5202      5205      5207
      5203      5202      5205      5208      5204      5202      5205      5206
      5204      5202      5205      5207      5204      5202      5205      5208
      5205      5208      5211      5212      5205      5208      5211      5213
      5205      5208      5211      5214      5206      5205      5208      5209
      5206      5205      5208      5210      5206      5205      5208      5211
      5207      5205      5208      5209      5207      5205      5208      5210
      5207      5205      5208      5211      5208      5211      5214      5215
      5208      5211      5214      5216      5208      5211      5214      5217
      5209      5208      5211      5212      5209      5208      5211      5213
      5209      5208      5211      5214      5210      5208      5211      5212
      5210      5208      5211      5213      5210      5208      5211      5214
      5212      5211      5214      5215      5212      5211      5214      5216
      5212      5211      5214      5217      5213      5211      5214      5215
      5213      5211      5214      5216      5213      5211      5214      5217
      5218      5221      5224      5225      5218      5221      5224      5226
      5218      5221      5224      5227      5219      5218      5221      5222
      5219      5218      5221      5223      5219      5218      5221      5224
      5220      5218      5221      5222      5220      5218      5221      5223
      5220      5218      5221      5224      5221      5224      5227      5228
      5221      5224      5227      5229      5221      5224      5227      5230
      5222      5221      5224      5225      5222      5221      5224      5226
      5222      5221      5224      5227      5223      5221      5224      5225
      5223      5221      5224      5226      5223      5221      5224      5227
      5224      5227      5230      5231      5224      5227      5230      5232
      5224      5227      5230      5233      5225      5224      5227      5228
      5225      5224      5227      5229      5225      5224      5227      5230
      5226      5224      5227      5228      5226      5224      5227      5229
      5226      5224      5227      5230      5227      5230      5233      5234
      5227      5230      5233      5235      5227      5230      5233      5236
      5228      5227      5230      5231      5228      5227      5230      5232
      5228      5227      5230      5233      5229      5227      5230      5231
      5229      5227      5230      5232      5229      5227      5230      5233
      5230      5233      5236      5237      5230      5233      5236      5238
      5230      5233      5236      5239      5231      5230      5233      5234
      5231      5230      5233      5235      5231      5230      5233      5236
      5232      5230      5233      5234      5232      5230      5233      5235
      5232      5230      5233      5236      5233      5236      5239      5240
      5233      5236      5239      5241      5233      5236      5239      5242
      5234      5233      5236      5237      5234      5233      5236      5238
      5234      5233      5236      5239      5235      5233      5236      5237
      5235      5233      5236      5238      5235      5233      5236      5239
      5236      5239      5242      5243      5236      5239      5242      5244
      5236      5239      5242      5245      5237      5236      5239      5240
      5237      5236      5239      5241      5237      5236      5239      5242
      5238      5236      5239      5240      5238      5236      5239      5241
      5238      5236      5239      5242      5239      5242      5245      5246
      5239      5242      5245      5247      5239      5242      5245      5248
      5240      5239      5242      5243      5240      5239      5242      5244
      5240      5239      5242      5245      5241      5239      5242      5243
      5241      5239      5242      5244      5241      5239      5242      5245
      5242      5245      5248      5249      5242      5245      5248      5250
      5242      5245      5248      5251      5243      5242      5245      5246
      5243      5242      5245      5247      5243      5242      5245      5248
      5244      5242      5245      5246      5244      5242      5245      5247
      5244      5242      5245      5248      5245      5248      5251      5252
      5245      5248      5251      5253      5245      5248      5251      5254
      5246      5245      5248      5249      5246      5245      5248      5250
      5246      5245      5248      5251      5247      5245      5248      5249
      5247      5245      5248      5250      5247      5245      5248      5251
      5248      5251      5254      5255      5248      5251      5254      5256
      5248      5251      5254      5257      5249      5248      5251      5252
      5249      5248      5251      5253      5249      5248      5251      5254
      5250      5248      5251      5252      5250      5248      5251      5253
      5250      5248      5251      5254      5251      5254      5257      5258
      5251      5254      5257      5259      5251      5254      5257      5260
      5252      5251      5254      5255      5252      5251      5254      5256
      5252      5251      5254      5257      5253      5251      5254      5255
      5253      5251      5254      5256      5253      5251      5254      5257
      5255      5254      5257      5258      5255      5254      5257      5259
      5255      5254      5257      5260      5256      5254      5257      5258
      5256      5254      5257      5259      5256      5254      5257      5260
      5261      5262      5277      5278      5261      5262      5277      5279
      5261      5262      5277      5283      5262      5261      5265      5266
      5262      5261      5265      5267      5262      5261      5265      5268
      5262      5261      5269      5270      5262      5261      5269      5271
      5262      5261      5269      5272      5262      5261      5273      5274
      5262      5261      5273      5275      5262      5261      5273      5276
      5262      5277      5283      5280      5263      5262      5261      5265
      5263      5262      5261      5269      5263      5262      5261      5273
      5263      5262      5277      5278      5263      5262      5277      5279
      5263      5262      5277      5283      5264      5262      5261      5265
      5264      5262      5261      5269      5264      5262      5261      5273
      5264      5262      5277      5278      5264      5262      5277      5279
      5264      5262      5277      5283      5265      5261      5262      5277
      5265      5261      5269      5270      5265      5261      5269      5271
      5265      5261      5269      5272      5265      5261      5273      5274
      5265      5261      5273      5275      5265      5261      5273      5276
      5266      5265      5261      5269      5266      5265      5261      5273
      5267      5265      5261      5269      5267      5265      5261      5273
      5268      5265      5261      5269      5268      5265      5261      5273
      5269      5261      5262      5277      5269      5261      5273      5274
      5269      5261      5273      5275      5269      5261      5273      5276
      5270      5269      5261      5273      5271      5269      5261      5273
      5272      5269      5261      5273      5273      5261      5262      5277
      5277      5283      5280      5281      5277      5283      5280      5282
      5277      5283      5280      5284      5278      5277      5283      5280
      5279      5277      5283      5280      5280      5284      5285      5286
      5280      5284      5285      5287      5280      5284      5285      5288
      5281      5280      5284      5285      5282      5280      5284      5285
      5283      5280      5284      5285      5284      5285      5288      5289
      5284      5285      5288      5290      5284      5285      5288      5296
      5285      5288      5290      5291      5285      5288      5296      5297
      5285      5288      5296      5298      5285      5288      5296      5299
      5286      5285      5288      5289      5286      5285      5288      5290
      5286      5285      5288      5296      5287      5285      5288      5289
      5287      5285      5288      5290      5287      5285      5288      5296
      5288      5290      5291      5292      5288      5290      5291      5293
      5288      5296      5299      5300      5289      5288      5290      5291
      5289      5288      5296      5297      5289      5288      5296      5298
      5289      5288      5296      5299      5290      5288      5296      5297
      5290      5288      5296      5298      5290      5288      5296      5299
      5290      5291      5293      5294      5290      5291      5293      5295
      5290      5291      5293      5305      5291      5290      5288      5296
      5291      5293      5305      5306      5291      5293      5305      5307
      5291      5293      5305      5308      5292      5291      5293      5294
      5292      5291      5293      5295      5292      5291      5293      5305
      5293      5305      5308      5309      5293      5305      5308      5310
      5293      5305      5308      5311      5294      5293      5305      5306
      5294      5293      5305      5307      5294      5293      5305      5308
      5295      5293      5305      5306      5295      5293      5305      5307
      5295      5293      5305      5308      5296      5299      5300      5301
      5296      5299      5300      5302      5297      5296      5299      5300
      5298      5296      5299      5300      5299      5300      5302      5303
      5299      5300      5302      5304      5299      5300      5302      5352
      5300      5302      5352      5353      5300      5302      5352      5354
      5300      5302      5352      5355      5301      5300      5302      5303
      5301      5300      5302      5304      5301      5300      5302      5352
      5302      5352      5355      5356      5302      5352      5355      5357
      5302      5352      5355      5358      5303      5302      5352      5353
      5303      5302      5352      5354      5303      5302      5352      5355
      5304      5302      5352      5353      5304      5302      5352      5354
      5304      5302      5352      5355      5305      5308      5311      5312
      5305      5308      5311      5313      5305      5308      5311      5314
      5306      5305      5308      5309      5306      5305      5308      5310
      5306      5305      5308      5311      5307      5305      5308      5309
      5307      5305      5308      5310      5307      5305      5308      5311
      5308      5311      5314      5315      5308      5311      5314      5316
      5308      5311      5314      5317      5309      5308      5311      5312
      5309      5308      5311      5313      5309      5308      5311      5314
      5310      5308      5311      5312      5310      5308      5311      5313
      5310      5308      5311      5314      5311      5314      5317      5318
      5311      5314      5317      5319      5311      5314      5317      5320
      5312      5311      5314      5315      5312      5311      5314      5316
      5312      5311      5314      5317      5313      5311      5314      5315
      5313      5311      5314      5316      5313      5311      5314      5317
      5314      5317      5320      5321      5314      5317      5320      5322
      5314      5317      5320      5323      5315      5314      5317      5318
      5315      5314      5317      5319      5315      5314      5317      5320
      5316      5314      5317      5318      5316      5314      5317      5319
      5316      5314      5317      5320      5317      5320      5323      5324
      5317      5320      5323      5325      5318      5317      5320      5321
      5318      5317      5320      5322      5318      5317      5320      5323
      5319      5317      5320      5321      5319      5317      5320      5322
      5319      5317      5320      5323      5320      5323      5325      5326
      5320      5323      5325      5327      5321      5320      5323      5324
      5321      5320      5323      5325      5322      5320      5323      5324
      5322      5320      5323      5325      5323      5325      5327      5328
      5323      5325      5327      5329      5323      5325      5327      5330
      5324      5323      5325      5326      5324      5323      5325      5327
      5325      5327      5330      5331      5325      5327      5330      5332
      5325      5327      5330      5333      5326      5325      5327      5328
      5326      5325      5327      5329      5326      5325      5327      5330
      5327      5330      5333      5334      5327      5330      5333      5335
      5327      5330      5333      5336      5328      5327      5330      5331
      5328      5327      5330      5332      5328      5327      5330      5333
      5329      5327      5330      5331      5329      5327      5330      5332
      5329      5327      5330      5333      5330      5333      5336      5337
      5330      5333      5336      5338      5330      5333      5336      5339
      5331      5330      5333      5334      5331      5330      5333      5335
      5331      5330      5333      5336      5332      5330      5333      5334
      5332      5330      5333      5335      5332      5330      5333      5336
      5333      5336      5339      5340      5333      5336      5339      5341
      5333      5336      5339      5342      5334      5333      5336      5337
      5334      5333      5336      5338      5334      5333      5336      5339
      5335      5333      5336      5337      5335      5333      5336      5338
      5335      5333      5336      5339      5336      5339      5342      5343
      5336      5339      5342      5344      5336      5339      5342      5345
      5337      5336      5339      5340      5337      5336      5339      5341
      5337      5336      5339      5342      5338      5336      5339      5340
      5338      5336      5339      5341      5338      5336      5339      5342
      5339      5342      5345      5346      5339      5342      5345      5347
      5339      5342      5345      5348      5340      5339      5342      5343
      5340      5339      5342      5344      5340      5339      5342      5345
      5341      5339      5342      5343      5341      5339      5342      5344
      5341      5339      5342      5345      5342      5345      5348      5349
      5342      5345      5348      5350      5342      5345      5348      5351
      5343      5342      5345      5346      5343      5342      5345      5347
      5343      5342      5345      5348      5344      5342      5345      5346
      5344      5342      5345      5347      5344      5342      5345      5348
      5346      5345      5348      5349      5346      5345      5348      5350
      5346      5345      5348      5351      5347      5345      5348      5349
      5347      5345      5348      5350      5347      5345      5348      5351
      5352      5355      5358      5359      5352      5355      5358      5360
      5352      5355      5358      5361      5353      5352      5355      5356
      5353      5352      5355      5357      5353      5352      5355      5358
      5354      5352      5355      5356      5354      5352      5355      5357
      5354      5352      5355      5358      5355      5358      5361      5362
      5355      5358      5361      5363      5355      5358      5361      5364
      5356      5355      5358      5359      5356      5355      5358      5360
      5356      5355      5358      5361      5357      5355      5358      5359
      5357      5355      5358      5360      5357      5355      5358      5361
      5358      5361      5364      5365      5358      5361      5364      5366
      5358      5361      5364      5367      5359      5358      5361      5362
      5359      5358      5361      5363      5359      5358      5361      5364
      5360      5358      5361      5362      5360      5358      5361      5363
      5360      5358      5361      5364      5361      5364      5367      5368
      5361      5364      5367      5369      5361      5364      5367      5370
      5362      5361      5364      5365      5362      5361      5364      5366
      5362      5361      5364      5367      5363      5361      5364      5365
      5363      5361      5364      5366      5363      5361      5364      5367
      5364      5367      5370      5371      5364      5367      5370      5372
      5364      5367      5370      5373      5365      5364      5367      5368
      5365      5364      5367      5369      5365      5364      5367      5370
      5366      5364      5367      5368      5366      5364      5367      5369
      5366      5364      5367      5370      5367      5370      5373      5374
      5367      5370      5373      5375      5367      5370      5373      5376
      5368      5367      5370      5371      5368      5367      5370      5372
      5368      5367      5370      5373      5369      5367      5370      5371
      5369      5367      5370      5372      5369      5367      5370      5373
      5370      5373      5376      5377      5370      5373      5376      5378
      5370      5373      5376      5379      5371      5370      5373      5374
      5371      5370      5373      5375      5371      5370      5373      5376
      5372      5370      5373      5374      5372      5370      5373      5375
      5372      5370      5373      5376      5373      5376      5379      5380
      5373      5376      5379      5381      5373      5376      5379      5382
      5374      5373      5376      5377      5374      5373      5376      5378
      5374      5373      5376      5379      5375      5373      5376      5377
      5375      5373      5376      5378      5375      5373      5376      5379
      5376      5379      5382      5383      5376      5379      5382      5384
      5376      5379      5382      5385      5377      5376      5379      5380
      5377      5376      5379      5381      5377      5376      5379      5382
      5378      5376      5379      5380      5378      5376      5379      5381
      5378      5376      5379      5382      5379      5382      5385      5386
      5379      5382      5385      5387      5379      5382      5385      5388
      5380      5379      5382      5383      5380      5379      5382      5384
      5380      5379      5382      5385      5381      5379      5382      5383
      5381      5379      5382      5384      5381      5379      5382      5385
      5382      5385      5388      5389      5382      5385      5388      5390
      5382      5385      5388      5391      5383      5382      5385      5386
      5383      5382      5385      5387      5383      5382      5385      5388
      5384      5382      5385      5386      5384      5382      5385      5387
      5384      5382      5385      5388      5385      5388      5391      5392
      5385      5388      5391      5393      5385      5388      5391      5394
      5386      5385      5388      5389      5386      5385      5388      5390
      5386      5385      5388      5391      5387      5385      5388      5389
      5387      5385      5388      5390      5387      5385      5388      5391
      5389      5388      5391      5392      5389      5388      5391      5393
      5389      5388      5391      5394      5390      5388      5391      5392
      5390      5388      5391      5393      5390      5388      5391      5394
      5395      5396      5411      5412      5395      5396      5411      5413
      5395      5396      5411      5417      5396      5395      5399      5400
      5396      5395      5399      5401      5396      5395      5399      5402
      5396      5395      5403      5404      5396      5395      5403      5405
      5396      5395      5403      5406      5396      5395      5407      5408
      5396      5395      5407      5409      5396      5395      5407      5410
      5396      5411      5417      5414      5397      5396      5395      5399
      5397      5396      5395      5403      5397      5396      5395      5407
      5397      5396      5411      5412      5397      5396      5411      5413
      5397      5396      5411      5417      5398      5396      5395      5399
      5398      5396      5395      5403      5398      5396      5395      5407
      5398      5396      5411      5412      5398      5396      5411      5413
      5398      5396      5411      5417      5399      5395      5396      5411
      5399      5395      5403      5404      5399      5395      5403      5405
      5399      5395      5403      5406      5399      5395      5407      5408
      5399      5395      5407      5409      5399      5395      5407      5410
      5400      5399      5395      5403      5400      5399      5395      5407
      5401      5399      5395      5403      5401      5399      5395      5407
      5402      5399      5395      5403      5402      5399      5395      5407
      5403      5395      5396      5411      5403      5395      5407      5408
      5403      5395      5407      5409      5403      5395      5407      5410
      5404      5403      5395      5407      5405      5403      5395      5407
      5406      5403      5395      5407      5407      5395      5396      5411
      5411      5417      5414      5415      5411      5417      5414      5416
      5411      5417      5414      5418      5412      5411      5417      5414
      5413      5411      5417      5414      5414      5418      5419      5420
      5414      5418      5419      5421      5414      5418      5419      5422
      5415      5414      5418      5419      5416      5414      5418      5419
      5417      5414      5418      5419      5418      5419      5422      5423
      5418      5419      5422      5424      5418      5419      5422      5430
      5419      5422      5424      5425      5419      5422      5430      5431
      5419      5422      5430      5432      5419      5422      5430      5433
      5420      5419      5422      5423      5420      5419      5422      5424
      5420      5419      5422      5430      5421      5419      5422      5423
      5421      5419      5422      5424      5421      5419      5422      5430
      5422      5424      5425      5426      5422      5424      5425      5427
      5422      5430      5433      5434      5423      5422      5424      5425
      5423      5422      5430      5431      5423      5422      5430      5432
      5423      5422      5430      5433      5424      5422      5430      5431
      5424      5422      5430      5432      5424      5422      5430      5433
      5424      5425      5427      5428      5424      5425      5427      5429
      5424      5425      5427      5439      5425      5424      5422      5430
      5425      5427      5439      5440      5425      5427      5439      5441
      5425      5427      5439      5442      5426      5425      5427      5428
      5426      5425      5427      5429      5426      5425      5427      5439
      5427      5439      5442      5443      5427      5439      5442      5444
      5427      5439      5442      5445      5428      5427      5439      5440
      5428      5427      5439      5441      5428      5427      5439      5442
      5429      5427      5439      5440      5429      5427      5439      5441
      5429      5427      5439      5442      5430      5433      5434      5435
      5430      5433      5434      5436      5431      5430      5433      5434
      5432      5430      5433      5434      5433      5434      5436      5437
      5433      5434      5436      5438      5433      5434      5436      5486
      5434      5436      5486      5487      5434      5436      5486      5488
      5434      5436      5486      5489      5435      5434      5436      5437
      5435      5434      5436      5438      5435      5434      5436      5486
      5436      5486      5489      5490      5436      5486      5489      5491
      5436      5486      5489      5492      5437      5436      5486      5487
      5437      5436      5486      5488      5437      5436      5486      5489
      5438      5436      5486      5487      5438      5436      5486      5488
      5438      5436      5486      5489      5439      5442      5445      5446
      5439      5442      5445      5447      5439      5442      5445      5448
      5440      5439      5442      5443      5440      5439      5442      5444
      5440      5439      5442      5445      5441      5439      5442      5443
      5441      5439      5442      5444      5441      5439      5442      5445
      5442      5445      5448      5449      5442      5445      5448      5450
      5442      5445      5448      5451      5443      5442      5445      5446
      5443      5442      5445      5447      5443      5442      5445      5448
      5444      5442      5445      5446      5444      5442      5445      5447
      5444      5442      5445      5448      5445      5448      5451      5452
      5445      5448      5451      5453      5445      5448      5451      5454
      5446      5445      5448      5449      5446      5445      5448      5450
      5446      5445      5448      5451      5447      5445      5448      5449
      5447      5445      5448      5450      5447      5445      5448      5451
      5448      5451      5454      5455      5448      5451      5454      5456
      5448      5451      5454      5457      5449      5448      5451      5452
      5449      5448      5451      5453      5449      5448      5451      5454
      5450      5448      5451      5452      5450      5448      5451      5453
      5450      5448      5451      5454      5451      5454      5457      5458
      5451      5454      5457      5459      5452      5451      5454      5455
      5452      5451      5454      5456      5452      5451      5454      5457
      5453      5451      5454      5455      5453      5451      5454      5456
      5453      5451      5454      5457      5454      5457      5459      5460
      5454      5457      5459      5461      5455      5454      5457      5458
      5455      5454      5457      5459      5456      5454      5457      5458
      5456      5454      5457      5459      5457      5459      5461      5462
      5457      5459      5461      5463      5457      5459      5461      5464
      5458      5457      5459      5460      5458      5457      5459      5461
      5459      5461      5464      5465      5459      5461      5464      5466
      5459      5461      5464      5467      5460      5459      5461      5462
      5460      5459      5461      5463      5460      5459      5461      5464
      5461      5464      5467      5468      5461      5464      5467      5469
      5461      5464      5467      5470      5462      5461      5464      5465
      5462      5461      5464      5466      5462      5461      5464      5467
      5463      5461      5464      5465      5463      5461      5464      5466
      5463      5461      5464      5467      5464      5467      5470      5471
      5464      5467      5470      5472      5464      5467      5470      5473
      5465      5464      5467      5468      5465      5464      5467      5469
      5465      5464      5467      5470      5466      5464      5467      5468
      5466      5464      5467      5469      5466      5464      5467      5470
      5467      5470      5473      5474      5467      5470      5473      5475
      5467      5470      5473      5476      5468      5467      5470      5471
      5468      5467      5470      5472      5468      5467      5470      5473
      5469      5467      5470      5471      5469      5467      5470      5472
      5469      5467      5470      5473      5470      5473      5476      5477
      5470      5473      5476      5478      5470      5473      5476      5479
      5471      5470      5473      5474      5471      5470      5473      5475
      5471      5470      5473      5476      5472      5470      5473      5474
      5472      5470      5473      5475      5472      5470      5473      5476
      5473      5476      5479      5480      5473      5476      5479      5481
      5473      5476      5479      5482      5474      5473      5476      5477
      5474      5473      5476      5478      5474      5473      5476      5479
      5475      5473      5476      5477      5475      5473      5476      5478
      5475      5473      5476      5479      5476      5479      5482      5483
      5476      5479      5482      5484      5476      5479      5482      5485
      5477      5476      5479      5480      5477      5476      5479      5481
      5477      5476      5479      5482      5478      5476      5479      5480
      5478      5476      5479      5481      5478      5476      5479      5482
      5480      5479      5482      5483      5480      5479      5482      5484
      5480      5479      5482      5485      5481      5479      5482      5483
      5481      5479      5482      5484      5481      5479      5482      5485
      5486      5489      5492      5493      5486      5489      5492      5494
      5486      5489      5492      5495      5487      5486      5489      5490
      5487      5486      5489      5491      5487      5486      5489      5492
      5488      5486      5489      5490      5488      5486      5489      5491
      5488      5486      5489      5492      5489      5492      5495      5496
      5489      5492      5495      5497      5489      5492      5495      5498
      5490      5489      5492      5493      5490      5489      5492      5494
      5490      5489      5492      5495      5491      5489      5492      5493
      5491      5489      5492      5494      5491      5489      5492      5495
      5492      5495      5498      5499      5492      5495      5498      5500
      5492      5495      5498      5501      5493      5492      5495      5496
      5493      5492      5495      5497      5493      5492      5495      5498
      5494      5492      5495      5496      5494      5492      5495      5497
      5494      5492      5495      5498      5495      5498      5501      5502
      5495      5498      5501      5503      5495      5498      5501      5504
      5496      5495      5498      5499      5496      5495      5498      5500
      5496      5495      5498      5501      5497      5495      5498      5499
      5497      5495      5498      5500      5497      5495      5498      5501
      5498      5501      5504      5505      5498      5501      5504      5506
      5498      5501      5504      5507      5499      5498      5501      5502
      5499      5498      5501      5503      5499      5498      5501      5504
      5500      5498      5501      5502      5500      5498      5501      5503
      5500      5498      5501      5504      5501      5504      5507      5508
      5501      5504      5507      5509      5501      5504      5507      5510
      5502      5501      5504      5505      5502      5501      5504      5506
      5502      5501      5504      5507      5503      5501      5504      5505
      5503      5501      5504      5506      5503      5501      5504      5507
      5504      5507      5510      5511      5504      5507      5510      5512
      5504      5507      5510      5513      5505      5504      5507      5508
      5505      5504      5507      5509      5505      5504      5507      5510
      5506      5504      5507      5508      5506      5504      5507      5509
      5506      5504      5507      5510      5507      5510      5513      5514
      5507      5510      5513      5515      5507      5510      5513      5516
      5508      5507      5510      5511      5508      5507      5510      5512
      5508      5507      5510      5513      5509      5507      5510      5511
      5509      5507      5510      5512      5509      5507      5510      5513
      5510      5513      5516      5517      5510      5513      5516      5518
      5510      5513      5516      5519      5511      5510      5513      5514
      5511      5510      5513      5515      5511      5510      5513      5516
      5512      5510      5513      5514      5512      5510      5513      5515
      5512      5510      5513      5516      5513      5516      5519      5520
      5513      5516      5519      5521      5513      5516      5519      5522
      5514      5513      5516      5517      5514      5513      5516      5518
      5514      5513      5516      5519      5515      5513      5516      5517
      5515      5513      5516      5518      5515      5513      5516      5519
      5516      5519      5522      5523      5516      5519      5522      5524
      5516      5519      5522      5525      5517      5516      5519      5520
      5517      5516      5519      5521      5517      5516      5519      5522
      5518      5516      5519      5520      5518      5516      5519      5521
      5518      5516      5519      5522      5519      5522      5525      5526
      5519      5522      5525      5527      5519      5522      5525      5528
      5520      5519      5522      5523      5520      5519      5522      5524
      5520      5519      5522      5525      5521      5519      5522      5523
      5521      5519      5522      5524      5521      5519      5522      5525
      5523      5522      5525      5526      5523      5522      5525      5527
      5523      5522      5525      5528      5524      5522      5525      5526
      5524      5522      5525      5527      5524      5522      5525      5528
      5529      5530      5545      5546      5529      5530      5545      5547
      5529      5530      5545      5551      5530      5529      5533      5534
      5530      5529      5533      5535      5530      5529      5533      5536
      5530      5529      5537      5538      5530      5529      5537      5539
      5530      5529      5537      5540      5530      5529      5541      5542
      5530      5529      5541      5543      5530      5529      5541      5544
      5530      5545      5551      5548      5531      5530      5529      5533
      5531      5530      5529      5537      5531      5530      5529      5541
      5531      5530      5545      5546      5531      5530      5545      5547
      5531      5530      5545      5551      5532      5530      5529      5533
      5532      5530      5529      5537      5532      5530      5529      5541
      5532      5530      5545      5546      5532      5530      5545      5547
      5532      5530      5545      5551      5533      5529      5530      5545
      5533      5529      5537      5538      5533      5529      5537      5539
      5533      5529      5537      5540      5533      5529      5541      5542
      5533      5529      5541      5543      5533      5529      5541      5544
      5534      5533      5529      5537      5534      5533      5529      5541
      5535      5533      5529      5537      5535      5533      5529      5541
      5536      5533      5529      5537      5536      5533      5529      5541
      5537      5529      5530      5545      5537      5529      5541      5542
      5537      5529      5541      5543      5537      5529      5541      5544
      5538      5537      5529      5541      5539      5537      5529      5541
      5540      5537      5529      5541      5541      5529      5530      5545
      5545      5551      5548      5549      5545      5551      5548      5550
      5545      5551      5548      5552      5546      5545      5551      5548
      5547      5545      5551      5548      5548      5552      5553      5554
      5548      5552      5553      5555      5548      5552      5553      5556
      5549      5548      5552      5553      5550      5548      5552      5553
      5551      5548      5552      5553      5552      5553      5556      5557
      5552      5553      5556      5558      5552      5553      5556      5564
      5553      5556      5558      5559      5553      5556      5564      5565
      5553      5556      5564      5566      5553      5556      5564      5567
      5554      5553      5556      5557      5554      5553      5556      5558
      5554      5553      5556      5564      5555      5553      5556      5557
      5555      5553      5556      5558      5555      5553      5556      5564
      5556      5558      5559      5560      5556      5558      5559      5561
      5556      5564      5567      5568      5557      5556      5558      5559
      5557      5556      5564      5565      5557      5556      5564      5566
      5557      5556      5564      5567      5558      5556      5564      5565
      5558      5556      5564      5566      5558      5556      5564      5567
      5558      5559      5561      5562      5558      5559      5561      5563
      5558      5559      5561      5573      5559      5558      5556      5564
      5559      5561      5573      5574      5559      5561      5573      5575
      5559      5561      5573      5576      5560      5559      5561      5562
      5560      5559      5561      5563      5560      5559      5561      5573
      5561      5573      5576      5577      5561      5573      5576      5578
      5561      5573      5576      5579      5562      5561      5573      5574
      5562      5561      5573      5575      5562      5561      5573      5576
      5563      5561      5573      5574      5563      5561      5573      5575
      5563      5561      5573      5576      5564      5567      5568      5569
      5564      5567      5568      5570      5565      5564      5567      5568
      5566      5564      5567      5568      5567      5568      5570      5571
      5567      5568      5570      5572      5567      5568      5570      5620
      5568      5570      5620      5621      5568      5570      5620      5622
      5568      5570      5620      5623      5569      5568      5570      5571
      5569      5568      5570      5572      5569      5568      5570      5620
      5570      5620      5623      5624      5570      5620      5623      5625
      5570      5620      5623      5626      5571      5570      5620      5621
      5571      5570      5620      5622      5571      5570      5620      5623
      5572      5570      5620      5621      5572      5570      5620      5622
      5572      5570      5620      5623      5573      5576      5579      5580
      5573      5576      5579      5581      5573      5576      5579      5582
      5574      5573      5576      5577      5574      5573      5576      5578
      5574      5573      5576      5579      5575      5573      5576      5577
      5575      5573      5576      5578      5575      5573      5576      5579
      5576      5579      5582      5583      5576      5579      5582      5584
      5576      5579      5582      5585      5577      5576      5579      5580
      5577      5576      5579      5581      5577      5576      5579      5582
      5578      5576      5579      5580      5578      5576      5579      5581
      5578      5576      5579      5582      5579      5582      5585      5586
      5579      5582      5585      5587      5579      5582      5585      5588
      5580      5579      5582      5583      5580      5579      5582      5584
      5580      5579      5582      5585      5581      5579      5582      5583
      5581      5579      5582      5584      5581      5579      5582      5585
      5582      5585      5588      5589      5582      5585      5588      5590
      5582      5585      5588      5591      5583      5582      5585      5586
      5583      5582      5585      5587      5583      5582      5585      5588
      5584      5582      5585      5586      5584      5582      5585      5587
      5584      5582      5585      5588      5585      5588      5591      5592
      5585      5588      5591      5593      5586      5585      5588      5589
      5586      5585      5588      5590      5586      5585      5588      5591
      5587      5585      5588      5589      5587      5585      5588      5590
      5587      5585      5588      5591      5588      5591      5593      5594
      5588      5591      5593      5595      5589      5588      5591      5592
      5589      5588      5591      5593      5590      5588      5591      5592
      5590      5588      5591      5593      5591      5593      5595      5596
      5591      5593      5595      5597      5591      5593      5595      5598
      5592      5591      5593      5594      5592      5591      5593      5595
      5593      5595      5598      5599      5593      5595      5598      5600
      5593      5595      5598      5601      5594      5593      5595      5596
      5594      5593      5595      5597      5594      5593      5595      5598
      5595      5598      5601      5602      5595      5598      5601      5603
      5595      5598      5601      5604      5596      5595      5598      5599
      5596      5595      5598      5600      5596      5595      5598      5601
      5597      5595      5598      5599      5597      5595      5598      5600
      5597      5595      5598      5601      5598      5601      5604      5605
      5598      5601      5604      5606      5598      5601      5604      5607
      5599      5598      5601      5602      5599      5598      5601      5603
      5599      5598      5601      5604      5600      5598      5601      5602
      5600      5598      5601      5603      5600      5598      5601      5604
      5601      5604      5607      5608      5601      5604      5607      5609
      5601      5604      5607      5610      5602      5601      5604      5605
      5602      5601      5604      5606      5602      5601      5604      5607
      5603      5601      5604      5605      5603      5601      5604      5606
      5603      5601      5604      5607      5604      5607      5610      5611
      5604      5607      5610      5612      5604      5607      5610      5613
      5605      5604      5607      5608      5605      5604      5607      5609
      5605      5604      5607      5610      5606      5604      5607      5608
      5606      5604      5607      5609      5606      5604      5607      5610
      5607      5610      5613      5614      5607      5610      5613      5615
      5607      5610      5613      5616      5608      5607      5610      5611
      5608      5607      5610      5612      5608      5607      5610      5613
      5609      5607      5610      5611      5609      5607      5610      5612
      5609      5607      5610      5613      5610      5613      5616      5617
      5610      5613      5616      5618      5610      5613      5616      5619
      5611      5610      5613      5614      5611      5610      5613      5615
      5611      5610      5613      5616      5612      5610      5613      5614
      5612      5610      5613      5615      5612      5610      5613      5616
      5614      5613      5616      5617      5614      5613      5616      5618
      5614      5613      5616      5619      5615      5613      5616      5617
      5615      5613      5616      5618      5615      5613      5616      5619
      5620      5623      5626      5627      5620      5623      5626      5628
      5620      5623      5626      5629      5621      5620      5623      5624
      5621      5620      5623      5625      5621      5620      5623      5626
      5622      5620      5623      5624      5622      5620      5623      5625
      5622      5620      5623      5626      5623      5626      5629      5630
      5623      5626      5629      5631      5623      5626      5629      5632
      5624      5623      5626      5627      5624      5623      5626      5628
      5624      5623      5626      5629      5625      5623      5626      5627
      5625      5623      5626      5628      5625      5623      5626      5629
      5626      5629      5632      5633      5626      5629      5632      5634
      5626      5629      5632      5635      5627      5626      5629      5630
      5627      5626      5629      5631      5627      5626      5629      5632
      5628      5626      5629      5630      5628      5626      5629      5631
      5628      5626      5629      5632      5629      5632      5635      5636
      5629      5632      5635      5637      5629      5632      5635      5638
      5630      5629      5632      5633      5630      5629      5632      5634
      5630      5629      5632      5635      5631      5629      5632      5633
      5631      5629      5632      5634      5631      5629      5632      5635
      5632      5635      5638      5639      5632      5635      5638      5640
      5632      5635      5638      5641      5633      5632      5635      5636
      5633      5632      5635      5637      5633      5632      5635      5638
      5634      5632      5635      5636      5634      5632      5635      5637
      5634      5632      5635      5638      5635      5638      5641      5642
      5635      5638      5641      5643      5635      5638      5641      5644
      5636      5635      5638      5639      5636      5635      5638      5640
      5636      5635      5638      5641      5637      5635      5638      5639
      5637      5635      5638      5640      5637      5635      5638      5641
      5638      5641      5644      5645      5638      5641      5644      5646
      5638      5641      5644      5647      5639      5638      5641      5642
      5639      5638      5641      5643      5639      5638      5641      5644
      5640      5638      5641      5642      5640      5638      5641      5643
      5640      5638      5641      5644      5641      5644      5647      5648
      5641      5644      5647      5649      5641      5644      5647      5650
      5642      5641      5644      5645      5642      5641      5644      5646
      5642      5641      5644      5647      5643      5641      5644      5645
      5643      5641      5644      5646      5643      5641      5644      5647
      5644      5647      5650      5651      5644      5647      5650      5652
      5644      5647      5650      5653      5645      5644      5647      5648
      5645      5644      5647      5649      5645      5644      5647      5650
      5646      5644      5647      5648      5646      5644      5647      5649
      5646      5644      5647      5650      5647      5650      5653      5654
      5647      5650      5653      5655      5647      5650      5653      5656
      5648      5647      5650      5651      5648      5647      5650      5652
      5648      5647      5650      5653      5649      5647      5650      5651
      5649      5647      5650      5652      5649      5647      5650      5653
      5650      5653      5656      5657      5650      5653      5656      5658
      5650      5653      5656      5659      5651      5650      5653      5654
      5651      5650      5653      5655      5651      5650      5653      5656
      5652      5650      5653      5654      5652      5650      5653      5655
      5652      5650      5653      5656      5653      5656      5659      5660
      5653      5656      5659      5661      5653      5656      5659      5662
      5654      5653      5656      5657      5654      5653      5656      5658
      5654      5653      5656      5659      5655      5653      5656      5657
      5655      5653      5656      5658      5655      5653      5656      5659
      5657      5656      5659      5660      5657      5656      5659      5661
      5657      5656      5659      5662      5658      5656      5659      5660
      5658      5656      5659      5661      5658      5656      5659      5662
      5663      5664      5679      5680      5663      5664      5679      5681
      5663      5664      5679      5685      5664      5663      5667      5668
      5664      5663      5667      5669      5664      5663      5667      5670
      5664      5663      5671      5672      5664      5663      5671      5673
      5664      5663      5671      5674      5664      5663      5675      5676
      5664      5663      5675      5677      5664      5663      5675      5678
      5664      5679      5685      5682      5665      5664      5663      5667
      5665      5664      5663      5671      5665      5664      5663      5675
      5665      5664      5679      5680      5665      5664      5679      5681
      5665      5664      5679      5685      5666      5664      5663      5667
      5666      5664      5663      5671      5666      5664      5663      5675
      5666      5664      5679      5680      5666      5664      5679      5681
      5666      5664      5679      5685      5667      5663      5664      5679
      5667      5663      5671      5672      5667      5663      5671      5673
      5667      5663      5671      5674      5667      5663      5675      5676
      5667      5663      5675      5677      5667      5663      5675      5678
      5668      5667      5663      5671      5668      5667      5663      5675
      5669      5667      5663      5671      5669      5667      5663      5675
      5670      5667      5663      5671      5670      5667      5663      5675
      5671      5663      5664      5679      5671      5663      5675      5676
      5671      5663      5675      5677      5671      5663      5675      5678
      5672      5671      5663      5675      5673      5671      5663      5675
      5674      5671      5663      5675      5675      5663      5664      5679
      5679      5685      5682      5683      5679      5685      5682      5684
      5679      5685      5682      5686      5680      5679      5685      5682
      5681      5679      5685      5682      5682      5686      5687      5688
      5682      5686      5687      5689      5682      5686      5687      5690
      5683      5682      5686      5687      5684      5682      5686      5687
      5685      5682      5686      5687      5686      5687      5690      5691
      5686      5687      5690      5692      5686      5687      5690      5698
      5687      5690      5692      5693      5687      5690      5698      5699
      5687      5690      5698      5700      5687      5690      5698      5701
      5688      5687      5690      5691      5688      5687      5690      5692
      5688      5687      5690      5698      5689      5687      5690      5691
      5689      5687      5690      5692      5689      5687      5690      5698
      5690      5692      5693      5694      5690      5692      5693      5695
      5690      5698      5701      5702      5691      5690      5692      5693
      5691      5690      5698      5699      5691      5690      5698      5700
      5691      5690      5698      5701      5692      5690      5698      5699
      5692      5690      5698      5700      5692      5690      5698      5701
      5692      5693      5695      5696      5692      5693      5695      5697
      5692      5693      5695      5707      5693      5692      5690      5698
      5693      5695      5707      5708      5693      5695      5707      5709
      5693      5695      5707      5710      5694      5693      5695      5696
      5694      5693      5695      5697      5694      5693      5695      5707
      5695      5707      5710      5711      5695      5707      5710      5712
      5695      5707      5710      5713      5696      5695      5707      5708
      5696      5695      5707      5709      5696      5695      5707      5710
      5697      5695      5707      5708      5697      5695      5707      5709
      5697      5695      5707      5710      5698      5701      5702      5703
      5698      5701      5702      5704      5699      5698      5701      5702
      5700      5698      5701      5702      5701      5702      5704      5705
      5701      5702      5704      5706      5701      5702      5704      5754
      5702      5704      5754      5755      5702      5704      5754      5756
      5702      5704      5754      5757      5703      5702      5704      5705
      5703      5702      5704      5706      5703      5702      5704      5754
      5704      5754      5757      5758      5704      5754      5757      5759
      5704      5754      5757      5760      5705      5704      5754      5755
      5705      5704      5754      5756      5705      5704      5754      5757
      5706      5704      5754      5755      5706      5704      5754      5756
      5706      5704      5754      5757      5707      5710      5713      5714
      5707      5710      5713      5715      5707      5710      5713      5716
      5708      5707      5710      5711      5708      5707      5710      5712
      5708      5707      5710      5713      5709      5707      5710      5711
      5709      5707      5710      5712      5709      5707      5710      5713
      5710      5713      5716      5717      5710      5713      5716      5718
      5710      5713      5716      5719      5711      5710      5713      5714
      5711      5710      5713      5715      5711      5710      5713      5716
      5712      5710      5713      5714      5712      5710      5713      5715
      5712      5710      5713      5716      5713      5716      5719      5720
      5713      5716      5719      5721      5713      5716      5719      5722
      5714      5713      5716      5717      5714      5713      5716      5718
      5714      5713      5716      5719      5715      5713      5716      5717
      5715      5713      5716      5718      5715      5713      5716      5719
      5716      5719      5722      5723      5716      5719      5722      5724
      5716      5719      5722      5725      5717      5716      5719      5720
      5717      5716      5719      5721      5717      5716      5719      5722
      5718      5716      5719      5720      5718      5716      5719      5721
      5718      5716      5719      5722      5719      5722      5725      5726
      5719      5722      5725      5727      5720      5719      5722      5723
      5720      5719      5722      5724      5720      5719      5722      5725
      5721      5719      5722      5723      5721      5719      5722      5724
      5721      5719      5722      5725      5722      5725      5727      5728
      5722      5725      5727      5729      5723      5722      5725      5726
      5723      5722      5725      5727      5724      5722      5725      5726
      5724      5722      5725      5727      5725      5727      5729      5730
      5725      5727      5729      5731      5725      5727      5729      5732
      5726      5725      5727      5728      5726      5725      5727      5729
      5727      5729      5732      5733      5727      5729      5732      5734
      5727      5729      5732      5735      5728      5727      5729      5730
      5728      5727      5729      5731      5728      5727      5729      5732
      5729      5732      5735      5736      5729      5732      5735      5737
      5729      5732      5735      5738      5730      5729      5732      5733
      5730      5729      5732      5734      5730      5729      5732      5735
      5731      5729      5732      5733      5731      5729      5732      5734
      5731      5729      5732      5735      5732      5735      5738      5739
      5732      5735      5738      5740      5732      5735      5738      5741
      5733      5732      5735      5736      5733      5732      5735      5737
      5733      5732      5735      5738      5734      5732      5735      5736
      5734      5732      5735      5737      5734      5732      5735      5738
      5735      5738      5741      5742      5735      5738      5741      5743
      5735      5738      5741      5744      5736      5735      5738      5739
      5736      5735      5738      5740      5736      5735      5738      5741
      5737      5735      5738      5739      5737      5735      5738      5740
      5737      5735      5738      5741      5738      5741      5744      5745
      5738      5741      5744      5746      5738      5741      5744      5747
      5739      5738      5741      5742      5739      5738      5741      5743
      5739      5738      5741      5744      5740      5738      5741      5742
      5740      5738      5741      5743      5740      5738      5741      5744
      5741      5744      5747      5748      5741      5744      5747      5749
      5741      5744      5747      5750      5742      5741      5744      5745
      5742      5741      5744      5746      5742      5741      5744      5747
      5743      5741      5744      5745      5743      5741      5744      5746
      5743      5741      5744      5747      5744      5747      5750      5751
      5744      5747      5750      5752      5744      5747      5750      5753
      5745      5744      5747      5748      5745      5744      5747      5749
      5745      5744      5747      5750      5746      5744      5747      5748
      5746      5744      5747      5749      5746      5744      5747      5750
      5748      5747      5750      5751      5748      5747      5750      5752
      5748      5747      5750      5753      5749      5747      5750      5751
      5749      5747      5750      5752      5749      5747      5750      5753
      5754      5757      5760      5761      5754      5757      5760      5762
      5754      5757      5760      5763      5755      5754      5757      5758
      5755      5754      5757      5759      5755      5754      5757      5760
      5756      5754      5757      5758      5756      5754      5757      5759
      5756      5754      5757      5760      5757      5760      5763      5764
      5757      5760      5763      5765      5757      5760      5763      5766
      5758      5757      5760      5761      5758      5757      5760      5762
      5758      5757      5760      5763      5759      5757      5760      5761
      5759      5757      5760      5762      5759      5757      5760      5763
      5760      5763      5766      5767      5760      5763      5766      5768
      5760      5763      5766      5769      5761      5760      5763      5764
      5761      5760      5763      5765      5761      5760      5763      5766
      5762      5760      5763      5764      5762      5760      5763      5765
      5762      5760      5763      5766      5763      5766      5769      5770
      5763      5766      5769      5771      5763      5766      5769      5772
      5764      5763      5766      5767      5764      5763      5766      5768
      5764      5763      5766      5769      5765      5763      5766      5767
      5765      5763      5766      5768      5765      5763      5766      5769
      5766      5769      5772      5773      5766      5769      5772      5774
      5766      5769      5772      5775      5767      5766      5769      5770
      5767      5766      5769      5771      5767      5766      5769      5772
      5768      5766      5769      5770      5768      5766      5769      5771
      5768      5766      5769      5772      5769      5772      5775      5776
      5769      5772      5775      5777      5769      5772      5775      5778
      5770      5769      5772      5773      5770      5769      5772      5774
      5770      5769      5772      5775      5771      5769      5772      5773
      5771      5769      5772      5774      5771      5769      5772      5775
      5772      5775      5778      5779      5772      5775      5778      5780
      5772      5775      5778      5781      5773      5772      5775      5776
      5773      5772      5775      5777      5773      5772      5775      5778
      5774      5772      5775      5776      5774      5772      5775      5777
      5774      5772      5775      5778      5775      5778      5781      5782
      5775      5778      5781      5783      5775      5778      5781      5784
      5776      5775      5778      5779      5776      5775      5778      5780
      5776      5775      5778      5781      5777      5775      5778      5779
      5777      5775      5778      5780      5777      5775      5778      5781
      5778      5781      5784      5785      5778      5781      5784      5786
      5778      5781      5784      5787      5779      5778      5781      5782
      5779      5778      5781      5783      5779      5778      5781      5784
      5780      5778      5781      5782      5780      5778      5781      5783
      5780      5778      5781      5784      5781      5784      5787      5788
      5781      5784      5787      5789      5781      5784      5787      5790
      5782      5781      5784      5785      5782      5781      5784      5786
      5782      5781      5784      5787      5783      5781      5784      5785
      5783      5781      5784      5786      5783      5781      5784      5787
      5784      5787      5790      5791      5784      5787      5790      5792
      5784      5787      5790      5793      5785      5784      5787      5788
      5785      5784      5787      5789      5785      5784      5787      5790
      5786      5784      5787      5788      5786      5784      5787      5789
      5786      5784      5787      5790      5787      5790      5793      5794
      5787      5790      5793      5795      5787      5790      5793      5796
      5788      5787      5790      5791      5788      5787      5790      5792
      5788      5787      5790      5793      5789      5787      5790      5791
      5789      5787      5790      5792      5789      5787      5790      5793
      5791      5790      5793      5794      5791      5790      5793      5795
      5791      5790      5793      5796      5792      5790      5793      5794
      5792      5790      5793      5795      5792      5790      5793      5796
      5797      5798      5813      5814      5797      5798      5813      5815
      5797      5798      5813      5819      5798      5797      5801      5802
      5798      5797      5801      5803      5798      5797      5801      5804
      5798      5797      5805      5806      5798      5797      5805      5807
      5798      5797      5805      5808      5798      5797      5809      5810
      5798      5797      5809      5811      5798      5797      5809      5812
      5798      5813      5819      5816      5799      5798      5797      5801
      5799      5798      5797      5805      5799      5798      5797      5809
      5799      5798      5813      5814      5799      5798      5813      5815
      5799      5798      5813      5819      5800      5798      5797      5801
      5800      5798      5797      5805      5800      5798      5797      5809
      5800      5798      5813      5814      5800      5798      5813      5815
      5800      5798      5813      5819      5801      5797      5798      5813
      5801      5797      5805      5806      5801      5797      5805      5807
      5801      5797      5805      5808      5801      5797      5809      5810
      5801      5797      5809      5811      5801      5797      5809      5812
      5802      5801      5797      5805      5802      5801      5797      5809
      5803      5801      5797      5805      5803      5801      5797      5809
      5804      5801      5797      5805      5804      5801      5797      5809
      5805      5797      5798      5813      5805      5797      5809      5810
      5805      5797      5809      5811      5805      5797      5809      5812
      5806      5805      5797      5809      5807      5805      5797      5809
      5808      5805      5797      5809      5809      5797      5798      5813
      5813      5819      5816      5817      5813      5819      5816      5818
      5813      5819      5816      5820      5814      5813      5819      5816
      5815      5813      5819      5816      5816      5820      5821      5822
      5816      5820      5821      5823      5816      5820      5821      5824
      5817      5816      5820      5821      5818      5816      5820      5821
      5819      5816      5820      5821      5820      5821      5824      5825
      5820      5821      5824      5826      5820      5821      5824      5832
      5821      5824      5826      5827      5821      5824      5832      5833
      5821      5824      5832      5834      5821      5824      5832      5835
      5822      5821      5824      5825      5822      5821      5824      5826
      5822      5821      5824      5832      5823      5821      5824      5825
      5823      5821      5824      5826      5823      5821      5824      5832
      5824      5826      5827      5828      5824      5826      5827      5829
      5824      5832      5835      5836      5825      5824      5826      5827
      5825      5824      5832      5833      5825      5824      5832      5834
      5825      5824      5832      5835      5826      5824      5832      5833
      5826      5824      5832      5834      5826      5824      5832      5835
      5826      5827      5829      5830      5826      5827      5829      5831
      5826      5827      5829      5841      5827      5826      5824      5832
      5827      5829      5841      5842      5827      5829      5841      5843
      5827      5829      5841      5844      5828      5827      5829      5830
      5828      5827      5829      5831      5828      5827      5829      5841
      5829      5841      5844      5845      5829      5841      5844      5846
      5829      5841      5844      5847      5830      5829      5841      5842
      5830      5829      5841      5843      5830      5829      5841      5844
      5831      5829      5841      5842      5831      5829      5841      5843
      5831      5829      5841      5844      5832      5835      5836      5837
      5832      5835      5836      5838      5833      5832      5835      5836
      5834      5832      5835      5836      5835      5836      5838      5839
      5835      5836      5838      5840      5835      5836      5838      5888
      5836      5838      5888      5889      5836      5838      5888      5890
      5836      5838      5888      5891      5837      5836      5838      5839
      5837      5836      5838      5840      5837      5836      5838      5888
      5838      5888      5891      5892      5838      5888      5891      5893
      5838      5888      5891      5894      5839      5838      5888      5889
      5839      5838      5888      5890      5839      5838      5888      5891
      5840      5838      5888      5889      5840      5838      5888      5890
      5840      5838      5888      5891      5841      5844      5847      5848
      5841      5844      5847      5849      5841      5844      5847      5850
      5842      5841      5844      5845      5842      5841      5844      5846
      5842      5841      5844      5847      5843      5841      5844      5845
      5843      5841      5844      5846      5843      5841      5844      5847
      5844      5847      5850      5851      5844      5847      5850      5852
      5844      5847      5850      5853      5845      5844      5847      5848
      5845      5844      5847      5849      5845      5844      5847      5850
      5846      5844      5847      5848      5846      5844      5847      5849
      5846      5844      5847      5850      5847      5850      5853      5854
      5847      5850      5853      5855      5847      5850      5853      5856
      5848      5847      5850      5851      5848      5847      5850      5852
      5848      5847      5850      5853      5849      5847      5850      5851
      5849      5847      5850      5852      5849      5847      5850      5853
      5850      5853      5856      5857      5850      5853      5856      5858
      5850      5853      5856      5859      5851      5850      5853      5854
      5851      5850      5853      5855      5851      5850      5853      5856
      5852      5850      5853      5854      5852      5850      5853      5855
      5852      5850      5853      5856      5853      5856      5859      5860
      5853      5856      5859      5861      5854      5853      5856      5857
      5854      5853      5856      5858      5854      5853      5856      5859
      5855      5853      5856      5857      5855      5853      5856      5858
      5855      5853      5856      5859      5856      5859      5861      5862
      5856      5859      5861      5863      5857      5856      5859      5860
      5857      5856      5859      5861      5858      5856      5859      5860
      5858      5856      5859      5861      5859      5861      5863      5864
      5859      5861      5863      5865      5859      5861      5863      5866
      5860      5859      5861      5862      5860      5859      5861      5863
      5861      5863      5866      5867      5861      5863      5866      5868
      5861      5863      5866      5869      5862      5861      5863      5864
      5862      5861      5863      5865      5862      5861      5863      5866
      5863      5866      5869      5870      5863      5866      5869      5871
      5863      5866      5869      5872      5864      5863      5866      5867
      5864      5863      5866      5868      5864      5863      5866      5869
      5865      5863      5866      5867      5865      5863      5866      5868
      5865      5863      5866      5869      5866      5869      5872      5873
      5866      5869      5872      5874      5866      5869      5872      5875
      5867      5866      5869      5870      5867      5866      5869      5871
      5867      5866      5869      5872      5868      5866      5869      5870
      5868      5866      5869      5871      5868      5866      5869      5872
      5869      5872      5875      5876      5869      5872      5875      5877
      5869      5872      5875      5878      5870      5869      5872      5873
      5870      5869      5872      5874      5870      5869      5872      5875
      5871      5869      5872      5873      5871      5869      5872      5874
      5871      5869      5872      5875      5872      5875      5878      5879
      5872      5875      5878      5880      5872      5875      5878      5881
      5873      5872      5875      5876      5873      5872      5875      5877
      5873      5872      5875      5878      5874      5872      5875      5876
      5874      5872      5875      5877      5874      5872      5875      5878
      5875      5878      5881      5882      5875      5878      5881      5883
      5875      5878      5881      5884      5876      5875      5878      5879
      5876      5875      5878      5880      5876      5875      5878      5881
      5877      5875      5878      5879      5877      5875      5878      5880
      5877      5875      5878      5881      5878      5881      5884      5885
      5878      5881      5884      5886      5878      5881      5884      5887
      5879      5878      5881      5882      5879      5878      5881      5883
      5879      5878      5881      5884      5880      5878      5881      5882
      5880      5878      5881      5883      5880      5878      5881      5884
      5882      5881      5884      5885      5882      5881      5884      5886
      5882      5881      5884      5887      5883      5881      5884      5885
      5883      5881      5884      5886      5883      5881      5884      5887
      5888      5891      5894      5895      5888      5891      5894      5896
      5888      5891      5894      5897      5889      5888      5891      5892
      5889      5888      5891      5893      5889      5888      5891      5894
      5890      5888      5891      5892      5890      5888      5891      5893
      5890      5888      5891      5894      5891      5894      5897      5898
      5891      5894      5897      5899      5891      5894      5897      5900
      5892      5891      5894      5895      5892      5891      5894      5896
      5892      5891      5894      5897      5893      5891      5894      5895
      5893      5891      5894      5896      5893      5891      5894      5897
      5894      5897      5900      5901      5894      5897      5900      5902
      5894      5897      5900      5903      5895      5894      5897      5898
      5895      5894      5897      5899      5895      5894      5897      5900
      5896      5894      5897      5898      5896      5894      5897      5899
      5896      5894      5897      5900      5897      5900      5903      5904
      5897      5900      5903      5905      5897      5900      5903      5906
      5898      5897      5900      5901      5898      5897      5900      5902
      5898      5897      5900      5903      5899      5897      5900      5901
      5899      5897      5900      5902      5899      5897      5900      5903
      5900      5903      5906      5907      5900      5903      5906      5908
      5900      5903      5906      5909      5901      5900      5903      5904
      5901      5900      5903      5905      5901      5900      5903      5906
      5902      5900      5903      5904      5902      5900      5903      5905
      5902      5900      5903      5906      5903      5906      5909      5910
      5903      5906      5909      5911      5903      5906      5909      5912
      5904      5903      5906      5907      5904      5903      5906      5908
      5904      5903      5906      5909      5905      5903      5906      5907
      5905      5903      5906      5908      5905      5903      5906      5909
      5906      5909      5912      5913      5906      5909      5912      5914
      5906      5909      5912      5915      5907      5906      5909      5910
      5907      5906      5909      5911      5907      5906      5909      5912
      5908      5906      5909      5910      5908      5906      5909      5911
      5908      5906      5909      5912      5909      5912      5915      5916
      5909      5912      5915      5917      5909      5912      5915      5918
      5910      5909      5912      5913      5910      5909      5912      5914
      5910      5909      5912      5915      5911      5909      5912      5913
      5911      5909      5912      5914      5911      5909      5912      5915
      5912      5915      5918      5919      5912      5915      5918      5920
      5912      5915      5918      5921      5913      5912      5915      5916
      5913      5912      5915      5917      5913      5912      5915      5918
      5914      5912      5915      5916      5914      5912      5915      5917
      5914      5912      5915      5918      5915      5918      5921      5922
      5915      5918      5921      5923      5915      5918      5921      5924
      5916      5915      5918      5919      5916      5915      5918      5920
      5916      5915      5918      5921      5917      5915      5918      5919
      5917      5915      5918      5920      5917      5915      5918      5921
      5918      5921      5924      5925      5918      5921      5924      5926
      5918      5921      5924      5927      5919      5918      5921      5922
      5919      5918      5921      5923      5919      5918      5921      5924
      5920      5918      5921      5922      5920      5918      5921      5923
      5920      5918      5921      5924      5921      5924      5927      5928
      5921      5924      5927      5929      5921      5924      5927      5930
      5922      5921      5924      5925      5922      5921      5924      5926
      5922      5921      5924      5927      5923      5921      5924      5925
      5923      5921      5924      5926      5923      5921      5924      5927
      5925      5924      5927      5928      5925      5924      5927      5929
      5925      5924      5927      5930      5926      5924      5927      5928
      5926      5924      5927      5929      5926      5924      5927      5930
      5931      5932      5947      5948      5931      5932      5947      5949
      5931      5932      5947      5953      5932      5931      5935      5936
      5932      5931      5935      5937      5932      5931      5935      5938
      5932      5931      5939      5940      5932      5931      5939      5941
      5932      5931      5939      5942      5932      5931      5943      5944
      5932      5931      5943      5945      5932      5931      5943      5946
      5932      5947      5953      5950      5933      5932      5931      5935
      5933      5932      5931      5939      5933      5932      5931      5943
      5933      5932      5947      5948      5933      5932      5947      5949
      5933      5932      5947      5953      5934      5932      5931      5935
      5934      5932      5931      5939      5934      5932      5931      5943
      5934      5932      5947      5948      5934      5932      5947      5949
      5934      5932      5947      5953      5935      5931      5932      5947
      5935      5931      5939      5940      5935      5931      5939      5941
      5935      5931      5939      5942      5935      5931      5943      5944
      5935      5931      5943      5945      5935      5931      5943      5946
      5936      5935      5931      5939      5936      5935      5931      5943
      5937      5935      5931      5939      5937      5935      5931      5943
      5938      5935      5931      5939      5938      5935      5931      5943
      5939      5931      5932      5947      5939      5931      5943      5944
      5939      5931      5943      5945      5939      5931      5943      5946
      5940      5939      5931      5943      5941      5939      5931      5943
      5942      5939      5931      5943      5943      5931      5932      5947
      5947      5953      5950      5951      5947      5953      5950      5952
      5947      5953      5950      5954      5948      5947      5953      5950
      5949      5947      5953      5950      5950      5954      5955      5956
      5950      5954      5955      5957      5950      5954      5955      5958
      5951      5950      5954      5955      5952      5950      5954      5955
      5953      5950      5954      5955      5954      5955      5958      5959
      5954      5955      5958      5960      5954      5955      5958      5966
      5955      5958      5960      5961      5955      5958      5966      5967
      5955      5958      5966      5968      5955      5958      5966      5969
      5956      5955      5958      5959      5956      5955      5958      5960
      5956      5955      5958      5966      5957      5955      5958      5959
      5957      5955      5958      5960      5957      5955      5958      5966
      5958      5960      5961      5962      5958      5960      5961      5963
      5958      5966      5969      5970      5959      5958      5960      5961
      5959      5958      5966      5967      5959      5958      5966      5968
      5959      5958      5966      5969      5960      5958      5966      5967
      5960      5958      5966      5968      5960      5958      5966      5969
      5960      5961      5963      5964      5960      5961      5963      5965
      5960      5961      5963      5975      5961      5960      5958      5966
      5961      5963      5975      5976      5961      5963      5975      5977
      5961      5963      5975      5978      5962      5961      5963      5964
      5962      5961      5963      5965      5962      5961      5963      5975
      5963      5975      5978      5979      5963      5975      5978      5980
      5963      5975      5978      5981      5964      5963      5975      5976
      5964      5963      5975      5977      5964      5963      5975      5978
      5965      5963      5975      5976      5965      5963      5975      5977
      5965      5963      5975      5978      5966      5969      5970      5971
      5966      5969      5970      5972      5967      5966      5969      5970
      5968      5966      5969      5970      5969      5970      5972      5973
      5969      5970      5972      5974      5969      5970      5972      6022
      5970      5972      6022      6023      5970      5972      6022      6024
      5970      5972      6022      6025      5971      5970      5972      5973
      5971      5970      5972      5974      5971      5970      5972      6022
      5972      6022      6025      6026      5972      6022      6025      6027
      5972      6022      6025      6028      5973      5972      6022      6023
      5973      5972      6022      6024      5973      5972      6022      6025
      5974      5972      6022      6023      5974      5972      6022      6024
      5974      5972      6022      6025      5975      5978      5981      5982
      5975      5978      5981      5983      5975      5978      5981      5984
      5976      5975      5978      5979      5976      5975      5978      5980
      5976      5975      5978      5981      5977      5975      5978      5979
      5977      5975      5978      5980      5977      5975      5978      5981
      5978      5981      5984      5985      5978      5981      5984      5986
      5978      5981      5984      5987      5979      5978      5981      5982
      5979      5978      5981      5983      5979      5978      5981      5984
      5980      5978      5981      5982      5980      5978      5981      5983
      5980      5978      5981      5984      5981      5984      5987      5988
      5981      5984      5987      5989      5981      5984      5987      5990
      5982      5981      5984      5985      5982      5981      5984      5986
      5982      5981      5984      5987      5983      5981      5984      5985
      5983      5981      5984      5986      5983      5981      5984      5987
      5984      5987      5990      5991      5984      5987      5990      5992
      5984      5987      5990      5993      5985      5984      5987      5988
      5985      5984      5987      5989      5985      5984      5987      5990
      5986      5984      5987      5988      5986      5984      5987      5989
      5986      5984      5987      5990      5987      5990      5993      5994
      5987      5990      5993      5995      5988      5987      5990      5991
      5988      5987      5990      5992      5988      5987      5990      5993
      5989      5987      5990      5991      5989      5987      5990      5992
      5989      5987      5990      5993      5990      5993      5995      5996
      5990      5993      5995      5997      5991      5990      5993      5994
      5991      5990      5993      5995      5992      5990      5993      5994
      5992      5990      5993      5995      5993      5995      5997      5998
      5993      5995      5997      5999      5993      5995      5997      6000
      5994      5993      5995      5996      5994      5993      5995      5997
      5995      5997      6000      6001      5995      5997      6000      6002
      5995      5997      6000      6003      5996      5995      5997      5998
      5996      5995      5997      5999      5996      5995      5997      6000
      5997      6000      6003      6004      5997      6000      6003      6005
      5997      6000      6003      6006      5998      5997      6000      6001
      5998      5997      6000      6002      5998      5997      6000      6003
      5999      5997      6000      6001      5999      5997      6000      6002
      5999      5997      6000      6003      6000      6003      6006      6007
      6000      6003      6006      6008      6000      6003      6006      6009
      6001      6000      6003      6004      6001      6000      6003      6005
      6001      6000      6003      6006      6002      6000      6003      6004
      6002      6000      6003      6005      6002      6000      6003      6006
      6003      6006      6009      6010      6003      6006      6009      6011
      6003      6006      6009      6012      6004      6003      6006      6007
      6004      6003      6006      6008      6004      6003      6006      6009
      6005      6003      6006      6007      6005      6003      6006      6008
      6005      6003      6006      6009      6006      6009      6012      6013
      6006      6009      6012      6014      6006      6009      6012      6015
      6007      6006      6009      6010      6007      6006      6009      6011
      6007      6006      6009      6012      6008      6006      6009      6010
      6008      6006      6009      6011      6008      6006      6009      6012
      6009      6012      6015      6016      6009      6012      6015      6017
      6009      6012      6015      6018      6010      6009      6012      6013
      6010      6009      6012      6014      6010      6009      6012      6015
      6011      6009      6012      6013      6011      6009      6012      6014
      6011      6009      6012      6015      6012      6015      6018      6019
      6012      6015      6018      6020      6012      6015      6018      6021
      6013      6012      6015      6016      6013      6012      6015      6017
      6013      6012      6015      6018      6014      6012      6015      6016
      6014      6012      6015      6017      6014      6012      6015      6018
      6016      6015      6018      6019      6016      6015      6018      6020
      6016      6015      6018      6021      6017      6015      6018      6019
      6017      6015      6018      6020      6017      6015      6018      6021
      6022      6025      6028      6029      6022      6025      6028      6030
      6022      6025      6028      6031      6023      6022      6025      6026
      6023      6022      6025      6027      6023      6022      6025      6028
      6024      6022      6025      6026      6024      6022      6025      6027
      6024      6022      6025      6028      6025      6028      6031      6032
      6025      6028      6031      6033      6025      6028      6031      6034
      6026      6025      6028      6029      6026      6025      6028      6030
      6026      6025      6028      6031      6027      6025      6028      6029
      6027      6025      6028      6030      6027      6025      6028      6031
      6028      6031      6034      6035      6028      6031      6034      6036
      6028      6031      6034      6037      6029      6028      6031      6032
      6029      6028      6031      6033      6029      6028      6031      6034
      6030      6028      6031      6032      6030      6028      6031      6033
      6030      6028      6031      6034      6031      6034      6037      6038
      6031      6034      6037      6039      6031      6034      6037      6040
      6032      6031      6034      6035      6032      6031      6034      6036
      6032      6031      6034      6037      6033      6031      6034      6035
      6033      6031      6034      6036      6033      6031      6034      6037
      6034      6037      6040      6041      6034      6037      6040      6042
      6034      6037      6040      6043      6035      6034      6037      6038
      6035      6034      6037      6039      6035      6034      6037      6040
      6036      6034      6037      6038      6036      6034      6037      6039
      6036      6034      6037      6040      6037      6040      6043      6044
      6037      6040      6043      6045      6037      6040      6043      6046
      6038      6037      6040      6041      6038      6037      6040      6042
      6038      6037      6040      6043      6039      6037      6040      6041
      6039      6037      6040      6042      6039      6037      6040      6043
      6040      6043      6046      6047      6040      6043      6046      6048
      6040      6043      6046      6049      6041      6040      6043      6044
      6041      6040      6043      6045      6041      6040      6043      6046
      6042      6040      6043      6044      6042      6040      6043      6045
      6042      6040      6043      6046      6043      6046      6049      6050
      6043      6046      6049      6051      6043      6046      6049      6052
      6044      6043      6046      6047      6044      6043      6046      6048
      6044      6043      6046      6049      6045      6043      6046      6047
      6045      6043      6046      6048      6045      6043      6046      6049
      6046      6049      6052      6053      6046      6049      6052      6054
      6046      6049      6052      6055      6047      6046      6049      6050
      6047      6046      6049      6051      6047      6046      6049      6052
      6048      6046      6049      6050      6048      6046      6049      6051
      6048      6046      6049      6052      6049      6052      6055      6056
      6049      6052      6055      6057      6049      6052      6055      6058
      6050      6049      6052      6053      6050      6049      6052      6054
      6050      6049      6052      6055      6051      6049      6052      6053
      6051      6049      6052      6054      6051      6049      6052      6055
      6052      6055      6058      6059      6052      6055      6058      6060
      6052      6055      6058      6061      6053      6052      6055      6056
      6053      6052      6055      6057      6053      6052      6055      6058
      6054      6052      6055      6056      6054      6052      6055      6057
      6054      6052      6055      6058      6055      6058      6061      6062
      6055      6058      6061      6063      6055      6058      6061      6064
      6056      6055      6058      6059      6056      6055      6058      6060
      6056      6055      6058      6061      6057      6055      6058      6059
      6057      6055      6058      6060      6057      6055      6058      6061
      6059      6058      6061      6062      6059      6058      6061      6063
      6059      6058      6061      6064      6060      6058      6061      6062
      6060      6058      6061      6063      6060      6058      6061      6064
      6065      6066      6081      6082      6065      6066      6081      6083
      6065      6066      6081      6087      6066      6065      6069      6070
      6066      6065      6069      6071      6066      6065      6069      6072
      6066      6065      6073      6074      6066      6065      6073      6075
      6066      6065      6073      6076      6066      6065      6077      6078
      6066      6065      6077      6079      6066      6065      6077      6080
      6066      6081      6087      6084      6067      6066      6065      6069
      6067      6066      6065      6073      6067      6066      6065      6077
      6067      6066      6081      6082      6067      6066      6081      6083
      6067      6066      6081      6087      6068      6066      6065      6069
      6068      6066      6065      6073      6068      6066      6065      6077
      6068      6066      6081      6082      6068      6066      6081      6083
      6068      6066      6081      6087      6069      6065      6066      6081
      6069      6065      6073      6074      6069      6065      6073      6075
      6069      6065      6073      6076      6069      6065      6077      6078
      6069      6065      6077      6079      6069      6065      6077      6080
      6070      6069      6065      6073      6070      6069      6065      6077
      6071      6069      6065      6073      6071      6069      6065      6077
      6072      6069      6065      6073      6072      6069      6065      6077
      6073      6065      6066      6081      6073      6065      6077      6078
      6073      6065      6077      6079      6073      6065      6077      6080
      6074      6073      6065      6077      6075      6073      6065      6077
      6076      6073      6065      6077      6077      6065      6066      6081
      6081      6087      6084      6085      6081      6087      6084      6086
      6081      6087      6084      6088      6082      6081      6087      6084
      6083      6081      6087      6084      6084      6088      6089      6090
      6084      6088      6089      6091      6084      6088      6089      6092
      6085      6084      6088      6089      6086      6084      6088      6089
      6087      6084      6088      6089      6088      6089      6092      6093
      6088      6089      6092      6094      6088      6089      6092      6100
      6089      6092      6094      6095      6089      6092      6100      6101
      6089      6092      6100      6102      6089      6092      6100      6103
      6090      6089      6092      6093      6090      6089      6092      6094
      6090      6089      6092      6100      6091      6089      6092      6093
      6091      6089      6092      6094      6091      6089      6092      6100
      6092      6094      6095      6096      6092      6094      6095      6097
      6092      6100      6103      6104      6093      6092      6094      6095
      6093      6092      6100      6101      6093      6092      6100      6102
      6093      6092      6100      6103      6094      6092      6100      6101
      6094      6092      6100      6102      6094      6092      6100      6103
      6094      6095      6097      6098      6094      6095      6097      6099
      6094      6095      6097      6109      6095      6094      6092      6100
      6095      6097      6109      6110      6095      6097      6109      6111
      6095      6097      6109      6112      6096      6095      6097      6098
      6096      6095      6097      6099      6096      6095      6097      6109
      6097      6109      6112      6113      6097      6109      6112      6114
      6097      6109      6112      6115      6098      6097      6109      6110
      6098      6097      6109      6111      6098      6097      6109      6112
      6099      6097      6109      6110      6099      6097      6109      6111
      6099      6097      6109      6112      6100      6103      6104      6105
      6100      6103      6104      6106      6101      6100      6103      6104
      6102      6100      6103      6104      6103      6104      6106      6107
      6103      6104      6106      6108      6103      6104      6106      6156
      6104      6106      6156      6157      6104      6106      6156      6158
      6104      6106      6156      6159      6105      6104      6106      6107
      6105      6104      6106      6108      6105      6104      6106      6156
      6106      6156      6159      6160      6106      6156      6159      6161
      6106      6156      6159      6162      6107      6106      6156      6157
      6107      6106      6156      6158      6107      6106      6156      6159
      6108      6106      6156      6157      6108      6106      6156      6158
      6108      6106      6156      6159      6109      6112      6115      6116
      6109      6112      6115      6117      6109      6112      6115      6118
      6110      6109      6112      6113      6110      6109      6112      6114
      6110      6109      6112      6115      6111      6109      6112      6113
      6111      6109      6112      6114      6111      6109      6112      6115
      6112      6115      6118      6119      6112      6115      6118      6120
      6112      6115      6118      6121      6113      6112      6115      6116
      6113      6112      6115      6117      6113      6112      6115      6118
      6114      6112      6115      6116      6114      6112      6115      6117
      6114      6112      6115      6118      6115      6118      6121      6122
      6115      6118      6121      6123      6115      6118      6121      6124
      6116      6115      6118      6119      6116      6115      6118      6120
      6116      6115      6118      6121      6117      6115      6118      6119
      6117      6115      6118      6120      6117      6115      6118      6121
      6118      6121      6124      6125      6118      6121      6124      6126
      6118      6121      6124      6127      6119      6118      6121      6122
      6119      6118      6121      6123      6119      6118      6121      6124
      6120      6118      6121      6122      6120      6118      6121      6123
      6120      6118      6121      6124      6121      6124      6127      6128
      6121      6124      6127      6129      6122      6121      6124      6125
      6122      6121      6124      6126      6122      6121      6124      6127
      6123      6121      6124      6125      6123      6121      6124      6126
      6123      6121      6124      6127      6124      6127      6129      6130
      6124      6127      6129      6131      6125      6124      6127      6128
      6125      6124      6127      6129      6126      6124      6127      6128
      6126      6124      6127      6129      6127      6129      6131      6132
      6127      6129      6131      6133      6127      6129      6131      6134
      6128      6127      6129      6130      6128      6127      6129      6131
      6129      6131      6134      6135      6129      6131      6134      6136
      6129      6131      6134      6137      6130      6129      6131      6132
      6130      6129      6131      6133      6130      6129      6131      6134
      6131      6134      6137      6138      6131      6134      6137      6139
      6131      6134      6137      6140      6132      6131      6134      6135
      6132      6131      6134      6136      6132      6131      6134      6137
      6133      6131      6134      6135      6133      6131      6134      6136
      6133      6131      6134      6137      6134      6137      6140      6141
      6134      6137      6140      6142      6134      6137      6140      6143
      6135      6134      6137      6138      6135      6134      6137      6139
      6135      6134      6137      6140      6136      6134      6137      6138
      6136      6134      6137      6139      6136      6134      6137      6140
      6137      6140      6143      6144      6137      6140      6143      6145
      6137      6140      6143      6146      6138      6137      6140      6141
      6138      6137      6140      6142      6138      6137      6140      6143
      6139      6137      6140      6141      6139      6137      6140      6142
      6139      6137      6140      6143      6140      6143      6146      6147
      6140      6143      6146      6148      6140      6143      6146      6149
      6141      6140      6143      6144      6141      6140      6143      6145
      6141      6140      6143      6146      6142      6140      6143      6144
      6142      6140      6143      6145      6142      6140      6143      6146
      6143      6146      6149      6150      6143      6146      6149      6151
      6143      6146      6149      6152      6144      6143      6146      6147
      6144      6143      6146      6148      6144      6143      6146      6149
      6145      6143      6146      6147      6145      6143      6146      6148
      6145      6143      6146      6149      6146      6149      6152      6153
      6146      6149      6152      6154      6146      6149      6152      6155
      6147      6146      6149      6150      6147      6146      6149      6151
      6147      6146      6149      6152      6148      6146      6149      6150
      6148      6146      6149      6151      6148      6146      6149      6152
      6150      6149      6152      6153      6150      6149      6152      6154
      6150      6149      6152      6155      6151      6149      6152      6153
      6151      6149      6152      6154      6151      6149      6152      6155
      6156      6159      6162      6163      6156      6159      6162      6164
      6156      6159      6162      6165      6157      6156      6159      6160
      6157      6156      6159      6161      6157      6156      6159      6162
      6158      6156      6159      6160      6158      6156      6159      6161
      6158      6156      6159      6162      6159      6162      6165      6166
      6159      6162      6165      6167      6159      6162      6165      6168
      6160      6159      6162      6163      6160      6159      6162      6164
      6160      6159      6162      6165      6161      6159      6162      6163
      6161      6159      6162      6164      6161      6159      6162      6165
      6162      6165      6168      6169      6162      6165      6168      6170
      6162      6165      6168      6171      6163      6162      6165      6166
      6163      6162      6165      6167      6163      6162      6165      6168
      6164      6162      6165      6166      6164      6162      6165      6167
      6164      6162      6165      6168      6165      6168      6171      6172
      6165      6168      6171      6173      6165      6168      6171      6174
      6166      6165      6168      6169      6166      6165      6168      6170
      6166      6165      6168      6171      6167      6165      6168      6169
      6167      6165      6168      6170      6167      6165      6168      6171
      6168      6171      6174      6175      6168      6171      6174      6176
      6168      6171      6174      6177      6169      6168      6171      6172
      6169      6168      6171      6173      6169      6168      6171      6174
      6170      6168      6171      6172      6170      6168      6171      6173
      6170      6168      6171      6174      6171      6174      6177      6178
      6171      6174      6177      6179      6171      6174      6177      6180
      6172      6171      6174      6175      6172      6171      6174      6176
      6172      6171      6174      6177      6173      6171      6174      6175
      6173      6171      6174      6176      6173      6171      6174      6177
      6174      6177      6180      6181      6174      6177      6180      6182
      6174      6177      6180      6183      6175      6174      6177      6178
      6175      6174      6177      6179      6175      6174      6177      6180
      6176      6174      6177      6178      6176      6174      6177      6179
      6176      6174      6177      6180      6177      6180      6183      6184
      6177      6180      6183      6185      6177      6180      6183      6186
      6178      6177      6180      6181      6178      6177      6180      6182
      6178      6177      6180      6183      6179      6177      6180      6181
      6179      6177      6180      6182      6179      6177      6180      6183
      6180      6183      6186      6187      6180      6183      6186      6188
      6180      6183      6186      6189      6181      6180      6183      6184
      6181      6180      6183      6185      6181      6180      6183      6186
      6182      6180      6183      6184      6182      6180      6183      6185
      6182      6180      6183      6186      6183      6186      6189      6190
      6183      6186      6189      6191      6183      6186      6189      6192
      6184      6183      6186      6187      6184      6183      6186      6188
      6184      6183      6186      6189      6185      6183      6186      6187
      6185      6183      6186      6188      6185      6183      6186      6189
      6186      6189      6192      6193      6186      6189      6192      6194
      6186      6189      6192      6195      6187      6186      6189      6190
      6187      6186      6189      6191      6187      6186      6189      6192
      6188      6186      6189      6190      6188      6186      6189      6191
      6188      6186      6189      6192      6189      6192      6195      6196
      6189      6192      6195      6197      6189      6192      6195      6198
      6190      6189      6192      6193      6190      6189      6192      6194
      6190      6189      6192      6195      6191      6189      6192      6193
      6191      6189      6192      6194      6191      6189      6192      6195
      6193      6192      6195      6196      6193      6192      6195      6197
      6193      6192      6195      6198      6194      6192      6195      6196
      6194      6192      6195      6197      6194      6192      6195      6198
      6199      6200      6215      6216      6199      6200      6215      6217
      6199      6200      6215      6221      6200      6199      6203      6204
      6200      6199      6203      6205      6200      6199      6203      6206
      6200      6199      6207      6208      6200      6199      6207      6209
      6200      6199      6207      6210      6200      6199      6211      6212
      6200      6199      6211      6213      6200      6199      6211      6214
      6200      6215      6221      6218      6201      6200      6199      6203
      6201      6200      6199      6207      6201      6200      6199      6211
      6201      6200      6215      6216      6201      6200      6215      6217
      6201      6200      6215      6221      6202      6200      6199      6203
      6202      6200      6199      6207      6202      6200      6199      6211
      6202      6200      6215      6216      6202      6200      6215      6217
      6202      6200      6215      6221      6203      6199      6200      6215
      6203      6199      6207      6208      6203      6199      6207      6209
      6203      6199      6207      6210      6203      6199      6211      6212
      6203      6199      6211      6213      6203      6199      6211      6214
      6204      6203      6199      6207      6204      6203      6199      6211
      6205      6203      6199      6207      6205      6203      6199      6211
      6206      6203      6199      6207      6206      6203      6199      6211
      6207      6199      6200      6215      6207      6199      6211      6212
      6207      6199      6211      6213      6207      6199      6211      6214
      6208      6207      6199      6211      6209      6207      6199      6211
      6210      6207      6199      6211      6211      6199      6200      6215
      6215      6221      6218      6219      6215      6221      6218      6220
      6215      6221      6218      6222      6216      6215      6221      6218
      6217      6215      6221      6218      6218      6222      6223      6224
      6218      6222      6223      6225      6218      6222      6223      6226
      6219      6218      6222      6223      6220      6218      6222      6223
      6221      6218      6222      6223      6222      6223      6226      6227
      6222      6223      6226      6228      6222      6223      6226      6234
      6223      6226      6228      6229      6223      6226      6234      6235
      6223      6226      6234      6236      6223      6226      6234      6237
      6224      6223      6226      6227      6224      6223      6226      6228
      6224      6223      6226      6234      6225      6223      6226      6227
      6225      6223      6226      6228      6225      6223      6226      6234
      6226      6228      6229      6230      6226      6228      6229      6231
      6226      6234      6237      6238      6227      6226      6228      6229
      6227      6226      6234      6235      6227      6226      6234      6236
      6227      6226      6234      6237      6228      6226      6234      6235
      6228      6226      6234      6236      6228      6226      6234      6237
      6228      6229      6231      6232      6228      6229      6231      6233
      6228      6229      6231      6243      6229      6228      6226      6234
      6229      6231      6243      6244      6229      6231      6243      6245
      6229      6231      6243      6246      6230      6229      6231      6232
      6230      6229      6231      6233      6230      6229      6231      6243
      6231      6243      6246      6247      6231      6243      6246      6248
      6231      6243      6246      6249      6232      6231      6243      6244
      6232      6231      6243      6245      6232      6231      6243      6246
      6233      6231      6243      6244      6233      6231      6243      6245
      6233      6231      6243      6246      6234      6237      6238      6239
      6234      6237      6238      6240      6235      6234      6237      6238
      6236      6234      6237      6238      6237      6238      6240      6241
      6237      6238      6240      6242      6237      6238      6240      6290
      6238      6240      6290      6291      6238      6240      6290      6292
      6238      6240      6290      6293      6239      6238      6240      6241
      6239      6238      6240      6242      6239      6238      6240      6290
      6240      6290      6293      6294      6240      6290      6293      6295
      6240      6290      6293      6296      6241      6240      6290      6291
      6241      6240      6290      6292      6241      6240      6290      6293
      6242      6240      6290      6291      6242      6240      6290      6292
      6242      6240      6290      6293      6243      6246      6249      6250
      6243      6246      6249      6251      6243      6246      6249      6252
      6244      6243      6246      6247      6244      6243      6246      6248
      6244      6243      6246      6249      6245      6243      6246      6247
      6245      6243      6246      6248      6245      6243      6246      6249
      6246      6249      6252      6253      6246      6249      6252      6254
      6246      6249      6252      6255      6247      6246      6249      6250
      6247      6246      6249      6251      6247      6246      6249      6252
      6248      6246      6249      6250      6248      6246      6249      6251
      6248      6246      6249      6252      6249      6252      6255      6256
      6249      6252      6255      6257      6249      6252      6255      6258
      6250      6249      6252      6253      6250      6249      6252      6254
      6250      6249      6252      6255      6251      6249      6252      6253
      6251      6249      6252      6254      6251      6249      6252      6255
      6252      6255      6258      6259      6252      6255      6258      6260
      6252      6255      6258      6261      6253      6252      6255      6256
      6253      6252      6255      6257      6253      6252      6255      6258
      6254      6252      6255      6256      6254      6252      6255      6257
      6254      6252      6255      6258      6255      6258      6261      6262
      6255      6258      6261      6263      6256      6255      6258      6259
      6256      6255      6258      6260      6256      6255      6258      6261
      6257      6255      6258      6259      6257      6255      6258      6260
      6257      6255      6258      6261      6258      6261      6263      6264
      6258      6261      6263      6265      6259      6258      6261      6262
      6259      6258      6261      6263      6260      6258      6261      6262
      6260      6258      6261      6263      6261      6263      6265      6266
      6261      6263      6265      6267      6261      6263      6265      6268
      6262      6261      6263      6264      6262      6261      6263      6265
      6263      6265      6268      6269      6263      6265      6268      6270
      6263      6265      6268      6271      6264      6263      6265      6266
      6264      6263      6265      6267      6264      6263      6265      6268
      6265      6268      6271      6272      6265      6268      6271      6273
      6265      6268      6271      6274      6266      6265      6268      6269
      6266      6265      6268      6270      6266      6265      6268      6271
      6267      6265      6268      6269      6267      6265      6268      6270
      6267      6265      6268      6271      6268      6271      6274      6275
      6268      6271      6274      6276      6268      6271      6274      6277
      6269      6268      6271      6272      6269      6268      6271      6273
      6269      6268      6271      6274      6270      6268      6271      6272
      6270      6268      6271      6273      6270      6268      6271      6274
      6271      6274      6277      6278      6271      6274      6277      6279
      6271      6274      6277      6280      6272      6271      6274      6275
      6272      6271      6274      6276      6272      6271      6274      6277
      6273      6271      6274      6275      6273      6271      6274      6276
      6273      6271      6274      6277      6274      6277      6280      6281
      6274      6277      6280      6282      6274      6277      6280      6283
      6275      6274      6277      6278      6275      6274      6277      6279
      6275      6274      6277      6280      6276      6274      6277      6278
      6276      6274      6277      6279      6276      6274      6277      6280
      6277      6280      6283      6284      6277      6280      6283      6285
      6277      6280      6283      6286      6278      6277      6280      6281
      6278      6277      6280      6282      6278      6277      6280      6283
      6279      6277      6280      6281      6279      6277      6280      6282
      6279      6277      6280      6283      6280      6283      6286      6287
      6280      6283      6286      6288      6280      6283      6286      6289
      6281      6280      6283      6284      6281      6280      6283      6285
      6281      6280      6283      6286      6282      6280      6283      6284
      6282      6280      6283      6285      6282      6280      6283      6286
      6284      6283      6286      6287      6284      6283      6286      6288
      6284      6283      6286      6289      6285      6283      6286      6287
      6285      6283      6286      6288      6285      6283      6286      6289
      6290      6293      6296      6297      6290      6293      6296      6298
      6290      6293      6296      6299      6291      6290      6293      6294
      6291      6290      6293      6295      6291      6290      6293      6296
      6292      6290      6293      6294      6292      6290      6293      6295
      6292      6290      6293      6296      6293      6296      6299      6300
      6293      6296      6299      6301      6293      6296      6299      6302
      6294      6293      6296      6297      6294      6293      6296      6298
      6294      6293      6296      6299      6295      6293      6296      6297
      6295      6293      6296      6298      6295      6293      6296      6299
      6296      6299      6302      6303      6296      6299      6302      6304
      6296      6299      6302      6305      6297      6296      6299      6300
      6297      6296      6299      6301      6297      6296      6299      6302
      6298      6296      6299      6300      6298      6296      6299      6301
      6298      6296      6299      6302      6299      6302      6305      6306
      6299      6302      6305      6307      6299      6302      6305      6308
      6300      6299      6302      6303      6300      6299      6302      6304
      6300      6299      6302      6305      6301      6299      6302      6303
      6301      6299      6302      6304      6301      6299      6302      6305
      6302      6305      6308      6309      6302      6305      6308      6310
      6302      6305      6308      6311      6303      6302      6305      6306
      6303      6302      6305      6307      6303      6302      6305      6308
      6304      6302      6305      6306      6304      6302      6305      6307
      6304      6302      6305      6308      6305      6308      6311      6312
      6305      6308      6311      6313      6305      6308      6311      6314
      6306      6305      6308      6309      6306      6305      6308      6310
      6306      6305      6308      6311      6307      6305      6308      6309
      6307      6305      6308      6310      6307      6305      6308      6311
      6308      6311      6314      6315      6308      6311      6314      6316
      6308      6311      6314      6317      6309      6308      6311      6312
      6309      6308      6311      6313      6309      6308      6311      6314
      6310      6308      6311      6312      6310      6308      6311      6313
      6310      6308      6311      6314      6311      6314      6317      6318
      6311      6314      6317      6319      6311      6314      6317      6320
      6312      6311      6314      6315      6312      6311      6314      6316
      6312      6311      6314      6317      6313      6311      6314      6315
      6313      6311      6314      6316      6313      6311      6314      6317
      6314      6317      6320      6321      6314      6317      6320      6322
      6314      6317      6320      6323      6315      6314      6317      6318
      6315      6314      6317      6319      6315      6314      6317      6320
      6316      6314      6317      6318      6316      6314      6317      6319
      6316      6314      6317      6320      6317      6320      6323      6324
      6317      6320      6323      6325      6317      6320      6323      6326
      6318      6317      6320      6321      6318      6317      6320      6322
      6318      6317      6320      6323      6319      6317      6320      6321
      6319      6317      6320      6322      6319      6317      6320      6323
      6320      6323      6326      6327      6320      6323      6326      6328
      6320      6323      6326      6329      6321      6320      6323      6324
      6321      6320      6323      6325      6321      6320      6323      6326
      6322      6320      6323      6324      6322      6320      6323      6325
      6322      6320      6323      6326      6323      6326      6329      6330
      6323      6326      6329      6331      6323      6326      6329      6332
      6324      6323      6326      6327      6324      6323      6326      6328
      6324      6323      6326      6329      6325      6323      6326      6327
      6325      6323      6326      6328      6325      6323      6326      6329
      6327      6326      6329      6330      6327      6326      6329      6331
      6327      6326      6329      6332      6328      6326      6329      6330
      6328      6326      6329      6331      6328      6326      6329      6332
      6333      6337      6339      6340      6333      6337      6339      6341
      6333      6337      6342      6343      6333      6337      6342      6344
      6333      6337      6342      6348      6334      6333      6337      6338
      6334      6333      6337      6339      6334      6333      6337      6342
      6335      6333      6337      6338      6335      6333      6337      6339
      6335      6333      6337      6342      6336      6333      6337      6338
      6336      6333      6337      6339      6336      6333      6337      6342
      6337      6342      6348      6345      6338      6337      6339      6340
      6338      6337      6339      6341      6338      6337      6342      6343
      6338      6337      6342      6344      6338      6337      6342      6348
      6339      6337      6342      6343      6339      6337      6342      6344
      6339      6337      6342      6348      6340      6339      6337      6342
      6341      6339      6337      6342      6342      6348      6345      6346
      6342      6348      6345      6347      6342      6348      6345      6349
      6343      6342      6348      6345      6344      6342      6348      6345
      6345      6349      6350      6351      6345      6349      6350      6352
      6345      6349      6350      6353      6346      6345      6349      6350
      6347      6345      6349      6350      6348      6345      6349      6350
      6349      6350      6353      6354      6349      6350      6353      6355
      6349      6350      6353      6361      6350      6353      6355      6356
      6350      6353      6361      6362      6350      6353      6361      6363
      6350      6353      6361      6364      6351      6350      6353      6354
      6351      6350      6353      6355      6351      6350      6353      6361
      6352      6350      6353      6354      6352      6350      6353      6355
      6352      6350      6353      6361      6353      6355      6356      6357
      6353      6355      6356      6358      6353      6361      6364      6365
      6354      6353      6355      6356      6354      6353      6361      6362
      6354      6353      6361      6363      6354      6353      6361      6364
      6355      6353      6361      6362      6355      6353      6361      6363
      6355      6353      6361      6364      6355      6356      6358      6359
      6355      6356      6358      6360      6355      6356      6358      6370
      6356      6355      6353      6361      6356      6358      6370      6371
      6356      6358      6370      6372      6356      6358      6370      6373
      6357      6356      6358      6359      6357      6356      6358      6360
      6357      6356      6358      6370      6358      6370      6373      6374
      6358      6370      6373      6375      6358      6370      6373      6376
      6359      6358      6370      6371      6359      6358      6370      6372
      6359      6358      6370      6373      6360      6358      6370      6371
      6360      6358      6370      6372      6360      6358      6370      6373
      6361      6364      6365      6366      6361      6364      6365      6367
      6362      6361      6364      6365      6363      6361      6364      6365
      6364      6365      6367      6368      6364      6365      6367      6369
      6364      6365      6367      6417      6365      6367      6417      6418
      6365      6367      6417      6419      6365      6367      6417      6420
      6366      6365      6367      6368      6366      6365      6367      6369
      6366      6365      6367      6417      6367      6417      6420      6421
      6367      6417      6420      6422      6367      6417      6420      6423
      6368      6367      6417      6418      6368      6367      6417      6419
      6368      6367      6417      6420      6369      6367      6417      6418
      6369      6367      6417      6419      6369      6367      6417      6420
      6370      6373      6376      6377      6370      6373      6376      6378
      6370      6373      6376      6379      6371      6370      6373      6374
      6371      6370      6373      6375      6371      6370      6373      6376
      6372      6370      6373      6374      6372      6370      6373      6375
      6372      6370      6373      6376      6373      6376      6379      6380
      6373      6376      6379      6381      6373      6376      6379      6382
      6374      6373      6376      6377      6374      6373      6376      6378
      6374      6373      6376      6379      6375      6373      6376      6377
      6375      6373      6376      6378      6375      6373      6376      6379
      6376      6379      6382      6383      6376      6379      6382      6384
      6376      6379      6382      6385      6377      6376      6379      6380
      6377      6376      6379      6381      6377      6376      6379      6382
      6378      6376      6379      6380      6378      6376      6379      6381
      6378      6376      6379      6382      6379      6382      6385      6386
      6379      6382      6385      6387      6379      6382      6385      6388
      6380      6379      6382      6383      6380      6379      6382      6384
      6380      6379      6382      6385      6381      6379      6382      6383
      6381      6379      6382      6384      6381      6379      6382      6385
      6382      6385      6388      6389      6382      6385      6388      6390
      6383      6382      6385      6386      6383      6382      6385      6387
      6383      6382      6385      6388      6384      6382      6385      6386
      6384      6382      6385      6387      6384      6382      6385      6388
      6385      6388      6390      6391      6385      6388      6390      6392
      6386      6385      6388      6389      6386      6385      6388      6390
      6387      6385      6388      6389      6387      6385      6388      6390
      6388      6390      6392      6393      6388      6390      6392      6394
      6388      6390      6392      6395      6389      6388      6390      6391
      6389      6388      6390      6392      6390      6392      6395      6396
      6390      6392      6395      6397      6390      6392      6395      6398
      6391      6390      6392      6393      6391      6390      6392      6394
      6391      6390      6392      6395      6392      6395      6398      6399
      6392      6395      6398      6400      6392      6395      6398      6401
      6393      6392      6395      6396      6393      6392      6395      6397
      6393      6392      6395      6398      6394      6392      6395      6396
      6394      6392      6395      6397      6394      6392      6395      6398
      6395      6398      6401      6402      6395      6398      6401      6403
      6395      6398      6401      6404      6396      6395      6398      6399
      6396      6395      6398      6400      6396      6395      6398      6401
      6397      6395      6398      6399      6397      6395      6398      6400
      6397      6395      6398      6401      6398      6401      6404      6405
      6398      6401      6404      6406      6398      6401      6404      6407
      6399      6398      6401      6402      6399      6398      6401      6403
      6399      6398      6401      6404      6400      6398      6401      6402
      6400      6398      6401      6403      6400      6398      6401      6404
      6401      6404      6407      6408      6401      6404      6407      6409
      6401      6404      6407      6410      6402      6401      6404      6405
      6402      6401      6404      6406      6402      6401      6404      6407
      6403      6401      6404      6405      6403      6401      6404      6406
      6403      6401      6404      6407      6404      6407      6410      6411
      6404      6407      6410      6412      6404      6407      6410      6413
      6405      6404      6407      6408      6405      6404      6407      6409
      6405      6404      6407      6410      6406      6404      6407      6408
      6406      6404      6407      6409      6406      6404      6407      6410
      6407      6410      6413      6414      6407      6410      6413      6415
      6407      6410      6413      6416      6408      6407      6410      6411
      6408      6407      6410      6412      6408      6407      6410      6413
      6409      6407      6410      6411      6409      6407      6410      6412
      6409      6407      6410      6413      6411      6410      6413      6414
      6411      6410      6413      6415      6411      6410      6413      6416
      6412      6410      6413      6414      6412      6410      6413      6415
      6412      6410      6413      6416      6417      6420      6423      6424
      6417      6420      6423      6425      6417      6420      6423      6426
      6418      6417      6420      6421      6418      6417      6420      6422
      6418      6417      6420      6423      6419      6417      6420      6421
      6419      6417      6420      6422      6419      6417      6420      6423
      6420      6423      6426      6427      6420      6423      6426      6428
      6420      6423      6426      6429      6421      6420      6423      6424
      6421      6420      6423      6425      6421      6420      6423      6426
      6422      6420      6423      6424      6422      6420      6423      6425
      6422      6420      6423      6426      6423      6426      6429      6430
      6423      6426      6429      6431      6423      6426      6429      6432
      6424      6423      6426      6427      6424      6423      6426      6428
      6424      6423      6426      6429      6425      6423      6426      6427
      6425      6423      6426      6428      6425      6423      6426      6429
      6426      6429      6432      6433      6426      6429      6432      6434
      6426      6429      6432      6435      6427      6426      6429      6430
      6427      6426      6429      6431      6427      6426      6429      6432
      6428      6426      6429      6430      6428      6426      6429      6431
      6428      6426      6429      6432      6429      6432      6435      6436
      6429      6432      6435      6437      6429      6432      6435      6438
      6430      6429      6432      6433      6430      6429      6432      6434
      6430      6429      6432      6435      6431      6429      6432      6433
      6431      6429      6432      6434      6431      6429      6432      6435
      6432      6435      6438      6439      6432      6435      6438      6440
      6432      6435      6438      6441      6433      6432      6435      6436
      6433      6432      6435      6437      6433      6432      6435      6438
      6434      6432      6435      6436      6434      6432      6435      6437
      6434      6432      6435      6438      6435      6438      6441      6442
      6435      6438      6441      6443      6435      6438      6441      6444
      6436      6435      6438      6439      6436      6435      6438      6440
      6436      6435      6438      6441      6437      6435      6438      6439
      6437      6435      6438      6440      6437      6435      6438      6441
      6438      6441      6444      6445      6438      6441      6444      6446
      6438      6441      6444      6447      6439      6438      6441      6442
      6439      6438      6441      6443      6439      6438      6441      6444
      6440      6438      6441      6442      6440      6438      6441      6443
      6440      6438      6441      6444      6441      6444      6447      6448
      6441      6444      6447      6449      6441      6444      6447      6450
      6442      6441      6444      6445      6442      6441      6444      6446
      6442      6441      6444      6447      6443      6441      6444      6445
      6443      6441      6444      6446      6443      6441      6444      6447
      6444      6447      6450      6451      6444      6447      6450      6452
      6444      6447      6450      6453      6445      6444      6447      6448
      6445      6444      6447      6449      6445      6444      6447      6450
      6446      6444      6447      6448      6446      6444      6447      6449
      6446      6444      6447      6450      6447      6450      6453      6454
      6447      6450      6453      6455      6447      6450      6453      6456
      6448      6447      6450      6451      6448      6447      6450      6452
      6448      6447      6450      6453      6449      6447      6450      6451
      6449      6447      6450      6452      6449      6447      6450      6453
      6450      6453      6456      6457      6450      6453      6456      6458
      6450      6453      6456      6459      6451      6450      6453      6454
      6451      6450      6453      6455      6451      6450      6453      6456
      6452      6450      6453      6454      6452      6450      6453      6455
      6452      6450      6453      6456      6454      6453      6456      6457
      6454      6453      6456      6458      6454      6453      6456      6459
      6455      6453      6456      6457      6455      6453      6456      6458
      6455      6453      6456      6459      6460      6464      6466      6467
      6460      6464      6466      6468      6460      6464      6469      6470
      6460      6464      6469      6471      6460      6464      6469      6475
      6461      6460      6464      6465      6461      6460      6464      6466
      6461      6460      6464      6469      6462      6460      6464      6465
      6462      6460      6464      6466      6462      6460      6464      6469
      6463      6460      6464      6465      6463      6460      6464      6466
      6463      6460      6464      6469      6464      6469      6475      6472
      6465      6464      6466      6467      6465      6464      6466      6468
      6465      6464      6469      6470      6465      6464      6469      6471
      6465      6464      6469      6475      6466      6464      6469      6470
      6466      6464      6469      6471      6466      6464      6469      6475
      6467      6466      6464      6469      6468      6466      6464      6469
      6469      6475      6472      6473      6469      6475      6472      6474
      6469      6475      6472      6476      6470      6469      6475      6472
      6471      6469      6475      6472      6472      6476      6477      6478
      6472      6476      6477      6479      6472      6476      6477      6480
      6473      6472      6476      6477      6474      6472      6476      6477
      6475      6472      6476      6477      6476      6477      6480      6481
      6476      6477      6480      6482      6476      6477      6480      6488
      6477      6480      6482      6483      6477      6480      6488      6489
      6477      6480      6488      6490      6477      6480      6488      6491
      6478      6477      6480      6481      6478      6477      6480      6482
      6478      6477      6480      6488      6479      6477      6480      6481
      6479      6477      6480      6482      6479      6477      6480      6488
      6480      6482      6483      6484      6480      6482      6483      6485
      6480      6488      6491      6492      6481      6480      6482      6483
      6481      6480      6488      6489      6481      6480      6488      6490
      6481      6480      6488      6491      6482      6480      6488      6489
      6482      6480      6488      6490      6482      6480      6488      6491
      6482      6483      6485      6486      6482      6483      6485      6487
      6482      6483      6485      6497      6483      6482      6480      6488
      6483      6485      6497      6498      6483      6485      6497      6499
      6483      6485      6497      6500      6484      6483      6485      6486
      6484      6483      6485      6487      6484      6483      6485      6497
      6485      6497      6500      6501      6485      6497      6500      6502
      6485      6497      6500      6503      6486      6485      6497      6498
      6486      6485      6497      6499      6486      6485      6497      6500
      6487      6485      6497      6498      6487      6485      6497      6499
      6487      6485      6497      6500      6488      6491      6492      6493
      6488      6491      6492      6494      6489      6488      6491      6492
      6490      6488      6491      6492      6491      6492      6494      6495
      6491      6492      6494      6496      6491      6492      6494      6544
      6492      6494      6544      6545      6492      6494      6544      6546
      6492      6494      6544      6547      6493      6492      6494      6495
      6493      6492      6494      6496      6493      6492      6494      6544
      6494      6544      6547      6548      6494      6544      6547      6549
      6494      6544      6547      6550      6495      6494      6544      6545
      6495      6494      6544      6546      6495      6494      6544      6547
      6496      6494      6544      6545      6496      6494      6544      6546
      6496      6494      6544      6547      6497      6500      6503      6504
      6497      6500      6503      6505      6497      6500      6503      6506
      6498      6497      6500      6501      6498      6497      6500      6502
      6498      6497      6500      6503      6499      6497      6500      6501
      6499      6497      6500      6502      6499      6497      6500      6503
      6500      6503      6506      6507      6500      6503      6506      6508
      6500      6503      6506      6509      6501      6500      6503      6504
      6501      6500      6503      6505      6501      6500      6503      6506
      6502      6500      6503      6504      6502      6500      6503      6505
      6502      6500      6503      6506      6503      6506      6509      6510
      6503      6506      6509      6511      6503      6506      6509      6512
      6504      6503      6506      6507      6504      6503      6506      6508
      6504      6503      6506      6509      6505      6503      6506      6507
      6505      6503      6506      6508      6505      6503      6506      6509
      6506      6509      6512      6513      6506      6509      6512      6514
      6506      6509      6512      6515      6507      6506      6509      6510
      6507      6506      6509      6511      6507      6506      6509      6512
      6508      6506      6509      6510      6508      6506      6509      6511
      6508      6506      6509      6512      6509      6512      6515      6516
      6509      6512      6515      6517      6510      6509      6512      6513
      6510      6509      6512      6514      6510      6509      6512      6515
      6511      6509      6512      6513      6511      6509      6512      6514
      6511      6509      6512      6515      6512      6515      6517      6518
      6512      6515      6517      6519      6513      6512      6515      6516
      6513      6512      6515      6517      6514      6512      6515      6516
      6514      6512      6515      6517      6515      6517      6519      6520
      6515      6517      6519      6521      6515      6517      6519      6522
      6516      6515      6517      6518      6516      6515      6517      6519
      6517      6519      6522      6523      6517      6519      6522      6524
      6517      6519      6522      6525      6518      6517      6519      6520
      6518      6517      6519      6521      6518      6517      6519      6522
      6519      6522      6525      6526      6519      6522      6525      6527
      6519      6522      6525      6528      6520      6519      6522      6523
      6520      6519      6522      6524      6520      6519      6522      6525
      6521      6519      6522      6523      6521      6519      6522      6524
      6521      6519      6522      6525      6522      6525      6528      6529
      6522      6525      6528      6530      6522      6525      6528      6531
      6523      6522      6525      6526      6523      6522      6525      6527
      6523      6522      6525      6528      6524      6522      6525      6526
      6524      6522      6525      6527      6524      6522      6525      6528
      6525      6528      6531      6532      6525      6528      6531      6533
      6525      6528      6531      6534      6526      6525      6528      6529
      6526      6525      6528      6530      6526      6525      6528      6531
      6527      6525      6528      6529      6527      6525      6528      6530
      6527      6525      6528      6531      6528      6531      6534      6535
      6528      6531      6534      6536      6528      6531      6534      6537
      6529      6528      6531      6532      6529      6528      6531      6533
      6529      6528      6531      6534      6530      6528      6531      6532
      6530      6528      6531      6533      6530      6528      6531      6534
      6531      6534      6537      6538      6531      6534      6537      6539
      6531      6534      6537      6540      6532      6531      6534      6535
      6532      6531      6534      6536      6532      6531      6534      6537
      6533      6531      6534      6535      6533      6531      6534      6536
      6533      6531      6534      6537      6534      6537      6540      6541
      6534      6537      6540      6542      6534      6537      6540      6543
      6535      6534      6537      6538      6535      6534      6537      6539
      6535      6534      6537      6540      6536      6534      6537      6538
      6536      6534      6537      6539      6536      6534      6537      6540
      6538      6537      6540      6541      6538      6537      6540      6542
      6538      6537      6540      6543      6539      6537      6540      6541
      6539      6537      6540      6542      6539      6537      6540      6543
      6544      6547      6550      6551      6544      6547      6550      6552
      6544      6547      6550      6553      6545      6544      6547      6548
      6545      6544      6547      6549      6545      6544      6547      6550
      6546      6544      6547      6548      6546      6544      6547      6549
      6546      6544      6547      6550      6547      6550      6553      6554
      6547      6550      6553      6555      6547      6550      6553      6556
      6548      6547      6550      6551      6548      6547      6550      6552
      6548      6547      6550      6553      6549      6547      6550      6551
      6549      6547      6550      6552      6549      6547      6550      6553
      6550      6553      6556      6557      6550      6553      6556      6558
      6550      6553      6556      6559      6551      6550      6553      6554
      6551      6550      6553      6555      6551      6550      6553      6556
      6552      6550      6553      6554      6552      6550      6553      6555
      6552      6550      6553      6556      6553      6556      6559      6560
      6553      6556      6559      6561      6553      6556      6559      6562
      6554      6553      6556      6557      6554      6553      6556      6558
      6554      6553      6556      6559      6555      6553      6556      6557
      6555      6553      6556      6558      6555      6553      6556      6559
      6556      6559      6562      6563      6556      6559      6562      6564
      6556      6559      6562      6565      6557      6556      6559      6560
      6557      6556      6559      6561      6557      6556      6559      6562
      6558      6556      6559      6560      6558      6556      6559      6561
      6558      6556      6559      6562      6559      6562      6565      6566
      6559      6562      6565      6567      6559      6562      6565      6568
      6560      6559      6562      6563      6560      6559      6562      6564
      6560      6559      6562      6565      6561      6559      6562      6563
      6561      6559      6562      6564      6561      6559      6562      6565
      6562      6565      6568      6569      6562      6565      6568      6570
      6562      6565      6568      6571      6563      6562      6565      6566
      6563      6562      6565      6567      6563      6562      6565      6568
      6564      6562      6565      6566      6564      6562      6565      6567
      6564      6562      6565      6568      6565      6568      6571      6572
      6565      6568      6571      6573      6565      6568      6571      6574
      6566      6565      6568      6569      6566      6565      6568      6570
      6566      6565      6568      6571      6567      6565      6568      6569
      6567      6565      6568      6570      6567      6565      6568      6571
      6568      6571      6574      6575      6568      6571      6574      6576
      6568      6571      6574      6577      6569      6568      6571      6572
      6569      6568      6571      6573      6569      6568      6571      6574
      6570      6568      6571      6572      6570      6568      6571      6573
      6570      6568      6571      6574      6571      6574      6577      6578
      6571      6574      6577      6579      6571      6574      6577      6580
      6572      6571      6574      6575      6572      6571      6574      6576
      6572      6571      6574      6577      6573      6571      6574      6575
      6573      6571      6574      6576      6573      6571      6574      6577
      6574      6577      6580      6581      6574      6577      6580      6582
      6574      6577      6580      6583      6575      6574      6577      6578
      6575      6574      6577      6579      6575      6574      6577      6580
      6576      6574      6577      6578      6576      6574      6577      6579
      6576      6574      6577      6580      6577      6580      6583      6584
      6577      6580      6583      6585      6577      6580      6583      6586
      6578      6577      6580      6581      6578      6577      6580      6582
      6578      6577      6580      6583      6579      6577      6580      6581
      6579      6577      6580      6582      6579      6577      6580      6583
      6581      6580      6583      6584      6581      6580      6583      6585
      6581      6580      6583      6586      6582      6580      6583      6584
      6582      6580      6583      6585      6582      6580      6583      6586
      6587      6588      6603      6604      6587      6588      6603      6605
      6587      6588      6603      6609      6588      6587      6591      6592
      6588      6587      6591      6593      6588      6587      6591      6594
      6588      6587      6595      6596      6588      6587      6595      6597
      6588      6587      6595      6598      6588      6587      6599      6600
      6588      6587      6599      6601      6588      6587      6599      6602
      6588      6603      6609      6606      6589      6588      6587      6591
      6589      6588      6587      6595      6589      6588      6587      6599
      6589      6588      6603      6604      6589      6588      6603      6605
      6589      6588      6603      6609      6590      6588      6587      6591
      6590      6588      6587      6595      6590      6588      6587      6599
      6590      6588      6603      6604      6590      6588      6603      6605
      6590      6588      6603      6609      6591      6587      6588      6603
      6591      6587      6595      6596      6591      6587      6595      6597
      6591      6587      6595      6598      6591      6587      6599      6600
      6591      6587      6599      6601      6591      6587      6599      6602
      6592      6591      6587      6595      6592      6591      6587      6599
      6593      6591      6587      6595      6593      6591      6587      6599
      6594      6591      6587      6595      6594      6591      6587      6599
      6595      6587      6588      6603      6595      6587      6599      6600
      6595      6587      6599      6601      6595      6587      6599      6602
      6596      6595      6587      6599      6597      6595      6587      6599
      6598      6595      6587      6599      6599      6587      6588      6603
      6603      6609      6606      6607      6603      6609      6606      6608
      6603      6609      6606      6610      6604      6603      6609      6606
      6605      6603      6609      6606      6606      6610      6611      6612
      6606      6610      6611      6613      6606      6610      6611      6614
      6607      6606      6610      6611      6608      6606      6610      6611
      6609      6606      6610      6611      6610      6611      6614      6615
      6610      6611      6614      6616      6610      6611      6614      6622
      6611      6614      6616      6617      6611      6614      6622      6623
      6611      6614      6622      6624      6611      6614      6622      6625
      6612      6611      6614      6615      6612      6611      6614      6616
      6612      6611      6614      6622      6613      6611      6614      6615
      6613      6611      6614      6616      6613      6611      6614      6622
      6614      6616      6617      6618      6614      6616      6617      6619
      6614      6622      6625      6626      6615      6614      6616      6617
      6615      6614      6622      6623      6615      6614      6622      6624
      6615      6614      6622      6625      6616      6614      6622      6623
      6616      6614      6622      6624      6616      6614      6622      6625
      6616      6617      6619      6620      6616      6617      6619      6621
      6616      6617      6619      6631      6617      6616      6614      6622
      6617      6619      6631      6632      6617      6619      6631      6633
      6617      6619      6631      6634      6618      6617      6619      6620
      6618      6617      6619      6621      6618      6617      6619      6631
      6619      6631      6634      6635      6619      6631      6634      6636
      6619      6631      6634      6637      6620      6619      6631      6632
      6620      6619      6631      6633      6620      6619      6631      6634
      6621      6619      6631      6632      6621      6619      6631      6633
      6621      6619      6631      6634      6622      6625      6626      6627
      6622      6625      6626      6628      6623      6622      6625      6626
      6624      6622      6625      6626      6625      6626      6628      6629
      6625      6626      6628      6630      6625      6626      6628      6678
      6626      6628      6678      6679      6626      6628      6678      6680
      6626      6628      6678      6681      6627      6626      6628      6629
      6627      6626      6628      6630      6627      6626      6628      6678
      6628      6678      6681      6682      6628      6678      6681      6683
      6628      6678      6681      6684      6629      6628      6678      6679
      6629      6628      6678      6680      6629      6628      6678      6681
      6630      6628      6678      6679      6630      6628      6678      6680
      6630      6628      6678      6681      6631      6634      6637      6638
      6631      6634      6637      6639      6631      6634      6637      6640
      6632      6631      6634      6635      6632      6631      6634      6636
      6632      6631      6634      6637      6633      6631      6634      6635
      6633      6631      6634      6636      6633      6631      6634      6637
      6634      6637      6640      6641      6634      6637      6640      6642
      6634      6637      6640      6643      6635      6634      6637      6638
      6635      6634      6637      6639      6635      6634      6637      6640
      6636      6634      6637      6638      6636      6634      6637      6639
      6636      6634      6637      6640      6637      6640      6643      6644
      6637      6640      6643      6645      6637      6640      6643      6646
      6638      6637      6640      6641      6638      6637      6640      6642
      6638      6637      6640      6643      6639      6637      6640      6641
      6639      6637      6640      6642      6639      6637      6640      6643
      6640      6643      6646      6647      6640      6643      6646      6648
      6640      6643      6646      6649      6641      6640      6643      6644
      6641      6640      6643      6645      6641      6640      6643      6646
      6642      6640      6643      6644      6642      6640      6643      6645
      6642      6640      6643      6646      6643      6646      6649      6650
      6643      6646      6649      6651      6644      6643      6646      6647
      6644      6643      6646      6648      6644      6643      6646      6649
      6645      6643      6646      6647      6645      6643      6646      6648
      6645      6643      6646      6649      6646      6649      6651      6652
      6646      6649      6651      6653      6647      6646      6649      6650
      6647      6646      6649      6651      6648      6646      6649      6650
      6648      6646      6649      6651      6649      6651      6653      6654
      6649      6651      6653      6655      6649      6651      6653      6656
      6650      6649      6651      6652      6650      6649      6651      6653
      6651      6653      6656      6657      6651      6653      6656      6658
      6651      6653      6656      6659      6652      6651      6653      6654
      6652      6651      6653      6655      6652      6651      6653      6656
      6653      6656      6659      6660      6653      6656      6659      6661
      6653      6656      6659      6662      6654      6653      6656      6657
      6654      6653      6656      6658      6654      6653      6656      6659
      6655      6653      6656      6657      6655      6653      6656      6658
      6655      6653      6656      6659      6656      6659      6662      6663
      6656      6659      6662      6664      6656      6659      6662      6665
      6657      6656      6659      6660      6657      6656      6659      6661
      6657      6656      6659      6662      6658      6656      6659      6660
      6658      6656      6659      6661      6658      6656      6659      6662
      6659      6662      6665      6666      6659      6662      6665      6667
      6659      6662      6665      6668      6660      6659      6662      6663
      6660      6659      6662      6664      6660      6659      6662      6665
      6661      6659      6662      6663      6661      6659      6662      6664
      6661      6659      6662      6665      6662      6665      6668      6669
      6662      6665      6668      6670      6662      6665      6668      6671
      6663      6662      6665      6666      6663      6662      6665      6667
      6663      6662      6665      6668      6664      6662      6665      6666
      6664      6662      6665      6667      6664      6662      6665      6668
      6665      6668      6671      6672      6665      6668      6671      6673
      6665      6668      6671      6674      6666      6665      6668      6669
      6666      6665      6668      6670      6666      6665      6668      6671
      6667      6665      6668      6669      6667      6665      6668      6670
      6667      6665      6668      6671      6668      6671      6674      6675
      6668      6671      6674      6676      6668      6671      6674      6677
      6669      6668      6671      6672      6669      6668      6671      6673
      6669      6668      6671      6674      6670      6668      6671      6672
      6670      6668      6671      6673      6670      6668      6671      6674
      6672      6671      6674      6675      6672      6671      6674      6676
      6672      6671      6674      6677      6673      6671      6674      6675
      6673      6671      6674      6676      6673      6671      6674      6677
      6678      6681      6684      6685      6678      6681      6684      6686
      6678      6681      6684      6687      6679      6678      6681      6682
      6679      6678      6681      6683      6679      6678      6681      6684
      6680      6678      6681      6682      6680      6678      6681      6683
      6680      6678      6681      6684      6681      6684      6687      6688
      6681      6684      6687      6689      6681      6684      6687      6690
      6682      6681      6684      6685      6682      6681      6684      6686
      6682      6681      6684      6687      6683      6681      6684      6685
      6683      6681      6684      6686      6683      6681      6684      6687
      6684      6687      6690      6691      6684      6687      6690      6692
      6684      6687      6690      6693      6685      6684      6687      6688
      6685      6684      6687      6689      6685      6684      6687      6690
      6686      6684      6687      6688      6686      6684      6687      6689
      6686      6684      6687      6690      6687      6690      6693      6694
      6687      6690      6693      6695      6687      6690      6693      6696
      6688      6687      6690      6691      6688      6687      6690      6692
      6688      6687      6690      6693      6689      6687      6690      6691
      6689      6687      6690      6692      6689      6687      6690      6693
      6690      6693      6696      6697      6690      6693      6696      6698
      6690      6693      6696      6699      6691      6690      6693      6694
      6691      6690      6693      6695      6691      6690      6693      6696
      6692      6690      6693      6694      6692      6690      6693      6695
      6692      6690      6693      6696      6693      6696      6699      6700
      6693      6696      6699      6701      6693      6696      6699      6702
      6694      6693      6696      6697      6694      6693      6696      6698
      6694      6693      6696      6699      6695      6693      6696      6697
      6695      6693      6696      6698      6695      6693      6696      6699
      6696      6699      6702      6703      6696      6699      6702      6704
      6696      6699      6702      6705      6697      6696      6699      6700
      6697      6696      6699      6701      6697      6696      6699      6702
      6698      6696      6699      6700      6698      6696      6699      6701
      6698      6696      6699      6702      6699      6702      6705      6706
      6699      6702      6705      6707      6699      6702      6705      6708
      6700      6699      6702      6703      6700      6699      6702      6704
      6700      6699      6702      6705      6701      6699      6702      6703
      6701      6699      6702      6704      6701      6699      6702      6705
      6702      6705      6708      6709      6702      6705      6708      6710
      6702      6705      6708      6711      6703      6702      6705      6706
      6703      6702      6705      6707      6703      6702      6705      6708
      6704      6702      6705      6706      6704      6702      6705      6707
      6704      6702      6705      6708      6705      6708      6711      6712
      6705      6708      6711      6713      6705      6708      6711      6714
      6706      6705      6708      6709      6706      6705      6708      6710
      6706      6705      6708      6711      6707      6705      6708      6709
      6707      6705      6708      6710      6707      6705      6708      6711
      6708      6711      6714      6715      6708      6711      6714      6716
      6708      6711      6714      6717      6709      6708      6711      6712
      6709      6708      6711      6713      6709      6708      6711      6714
      6710      6708      6711      6712      6710      6708      6711      6713
      6710      6708      6711      6714      6711      6714      6717      6718
      6711      6714      6717      6719      6711      6714      6717      6720
      6712      6711      6714      6715      6712      6711      6714      6716
      6712      6711      6714      6717      6713      6711      6714      6715
      6713      6711      6714      6716      6713      6711      6714      6717
      6715      6714      6717      6718      6715      6714      6717      6719
      6715      6714      6717      6720      6716      6714      6717      6718
      6716      6714      6717      6719      6716      6714      6717      6720
      6721      6722      6737      6738      6721      6722      6737      6739
      6721      6722      6737      6743      6722      6721      6725      6726
      6722      6721      6725      6727      6722      6721      6725      6728
      6722      6721      6729      6730      6722      6721      6729      6731
      6722      6721      6729      6732      6722      6721      6733      6734
      6722      6721      6733      6735      6722      6721      6733      6736
      6722      6737      6743      6740      6723      6722      6721      6725
      6723      6722      6721      6729      6723      6722      6721      6733
      6723      6722      6737      6738      6723      6722      6737      6739
      6723      6722      6737      6743      6724      6722      6721      6725
      6724      6722      6721      6729      6724      6722      6721      6733
      6724      6722      6737      6738      6724      6722      6737      6739
      6724      6722      6737      6743      6725      6721      6722      6737
      6725      6721      6729      6730      6725      6721      6729      6731
      6725      6721      6729      6732      6725      6721      6733      6734
      6725      6721      6733      6735      6725      6721      6733      6736
      6726      6725      6721      6729      6726      6725      6721      6733
      6727      6725      6721      6729      6727      6725      6721      6733
      6728      6725      6721      6729      6728      6725      6721      6733
      6729      6721      6722      6737      6729      6721      6733      6734
      6729      6721      6733      6735      6729      6721      6733      6736
      6730      6729      6721      6733      6731      6729      6721      6733
      6732      6729      6721      6733      6733      6721      6722      6737
      6737      6743      6740      6741      6737      6743      6740      6742
      6737      6743      6740      6744      6738      6737      6743      6740
      6739      6737      6743      6740      6740      6744      6745      6746
      6740      6744      6745      6747      6740      6744      6745      6748
      6741      6740      6744      6745      6742      6740      6744      6745
      6743      6740      6744      6745      6744      6745      6748      6749
      6744      6745      6748      6750      6744      6745      6748      6756
      6745      6748      6750      6751      6745      6748      6756      6757
      6745      6748      6756      6758      6745      6748      6756      6759
      6746      6745      6748      6749      6746      6745      6748      6750
      6746      6745      6748      6756      6747      6745      6748      6749
      6747      6745      6748      6750      6747      6745      6748      6756
      6748      6750      6751      6752      6748      6750      6751      6753
      6748      6756      6759      6760      6749      6748      6750      6751
      6749      6748      6756      6757      6749      6748      6756      6758
      6749      6748      6756      6759      6750      6748      6756      6757
      6750      6748      6756      6758      6750      6748      6756      6759
      6750      6751      6753      6754      6750      6751      6753      6755
      6750      6751      6753      6765      6751      6750      6748      6756
      6751      6753      6765      6766      6751      6753      6765      6767
      6751      6753      6765      6768      6752      6751      6753      6754
      6752      6751      6753      6755      6752      6751      6753      6765
      6753      6765      6768      6769      6753      6765      6768      6770
      6753      6765      6768      6771      6754      6753      6765      6766
      6754      6753      6765      6767      6754      6753      6765      6768
      6755      6753      6765      6766      6755      6753      6765      6767
      6755      6753      6765      6768      6756      6759      6760      6761
      6756      6759      6760      6762      6757      6756      6759      6760
      6758      6756      6759      6760      6759      6760      6762      6763
      6759      6760      6762      6764      6759      6760      6762      6812
      6760      6762      6812      6813      6760      6762      6812      6814
      6760      6762      6812      6815      6761      6760      6762      6763
      6761      6760      6762      6764      6761      6760      6762      6812
      6762      6812      6815      6816      6762      6812      6815      6817
      6762      6812      6815      6818      6763      6762      6812      6813
      6763      6762      6812      6814      6763      6762      6812      6815
      6764      6762      6812      6813      6764      6762      6812      6814
      6764      6762      6812      6815      6765      6768      6771      6772
      6765      6768      6771      6773      6765      6768      6771      6774
      6766      6765      6768      6769      6766      6765      6768      6770
      6766      6765      6768      6771      6767      6765      6768      6769
      6767      6765      6768      6770      6767      6765      6768      6771
      6768      6771      6774      6775      6768      6771      6774      6776
      6768      6771      6774      6777      6769      6768      6771      6772
      6769      6768      6771      6773      6769      6768      6771      6774
      6770      6768      6771      6772      6770      6768      6771      6773
      6770      6768      6771      6774      6771      6774      6777      6778
      6771      6774      6777      6779      6771      6774      6777      6780
      6772      6771      6774      6775      6772      6771      6774      6776
      6772      6771      6774      6777      6773      6771      6774      6775
      6773      6771      6774      6776      6773      6771      6774      6777
      6774      6777      6780      6781      6774      6777      6780      6782
      6774      6777      6780      6783      6775      6774      6777      6778
      6775      6774      6777      6779      6775      6774      6777      6780
      6776      6774      6777      6778      6776      6774      6777      6779
      6776      6774      6777      6780      6777      6780      6783      6784
      6777      6780      6783      6785      6778      6777      6780      6781
      6778      6777      6780      6782      6778      6777      6780      6783
      6779      6777      6780      6781      6779      6777      6780      6782
      6779      6777      6780      6783      6780      6783      6785      6786
      6780      6783      6785      6787      6781      6780      6783      6784
      6781      6780      6783      6785      6782      6780      6783      6784
      6782      6780      6783      6785      6783      6785      6787      6788
      6783      6785      6787      6789      6783      6785      6787      6790
      6784      6783      6785      6786      6784      6783      6785      6787
      6785      6787      6790      6791      6785      6787      6790      6792
      6785      6787      6790      6793      6786      6785      6787      6788
      6786      6785      6787      6789      6786      6785      6787      6790
      6787      6790      6793      6794      6787      6790      6793      6795
      6787      6790      6793      6796      6788      6787      6790      6791
      6788      6787      6790      6792      6788      6787      6790      6793
      6789      6787      6790      6791      6789      6787      6790      6792
      6789      6787      6790      6793      6790      6793      6796      6797
      6790      6793      6796      6798      6790      6793      6796      6799
      6791      6790      6793      6794      6791      6790      6793      6795
      6791      6790      6793      6796      6792      6790      6793      6794
      6792      6790      6793      6795      6792      6790      6793      6796
      6793      6796      6799      6800      6793      6796      6799      6801
      6793      6796      6799      6802      6794      6793      6796      6797
      6794      6793      6796      6798      6794      6793      6796      6799
      6795      6793      6796      6797      6795      6793      6796      6798
      6795      6793      6796      6799      6796      6799      6802      6803
      6796      6799      6802      6804      6796      6799      6802      6805
      6797      6796      6799      6800      6797      6796      6799      6801
      6797      6796      6799      6802      6798      6796      6799      6800
      6798      6796      6799      6801      6798      6796      6799      6802
      6799      6802      6805      6806      6799      6802      6805      6807
      6799      6802      6805      6808      6800      6799      6802      6803
      6800      6799      6802      6804      6800      6799      6802      6805
      6801      6799      6802      6803      6801      6799      6802      6804
      6801      6799      6802      6805      6802      6805      6808      6809
      6802      6805      6808      6810      6802      6805      6808      6811
      6803      6802      6805      6806      6803      6802      6805      6807
      6803      6802      6805      6808      6804      6802      6805      6806
      6804      6802      6805      6807      6804      6802      6805      6808
      6806      6805      6808      6809      6806      6805      6808      6810
      6806      6805      6808      6811      6807      6805      6808      6809
      6807      6805      6808      6810      6807      6805      6808      6811
      6812      6815      6818      6819      6812      6815      6818      6820
      6812      6815      6818      6821      6813      6812      6815      6816
      6813      6812      6815      6817      6813      6812      6815      6818
      6814      6812      6815      6816      6814      6812      6815      6817
      6814      6812      6815      6818      6815      6818      6821      6822
      6815      6818      6821      6823      6815      6818      6821      6824
      6816      6815      6818      6819      6816      6815      6818      6820
      6816      6815      6818      6821      6817      6815      6818      6819
      6817      6815      6818      6820      6817      6815      6818      6821
      6818      6821      6824      6825      6818      6821      6824      6826
      6818      6821      6824      6827      6819      6818      6821      6822
      6819      6818      6821      6823      6819      6818      6821      6824
      6820      6818      6821      6822      6820      6818      6821      6823
      6820      6818      6821      6824      6821      6824      6827      6828
      6821      6824      6827      6829      6821      6824      6827      6830
      6822      6821      6824      6825      6822      6821      6824      6826
      6822      6821      6824      6827      6823      6821      6824      6825
      6823      6821      6824      6826      6823      6821      6824      6827
      6824      6827      6830      6831      6824      6827      6830      6832
      6824      6827      6830      6833      6825      6824      6827      6828
      6825      6824      6827      6829      6825      6824      6827      6830
      6826      6824      6827      6828      6826      6824      6827      6829
      6826      6824      6827      6830      6827      6830      6833      6834
      6827      6830      6833      6835      6827      6830      6833      6836
      6828      6827      6830      6831      6828      6827      6830      6832
      6828      6827      6830      6833      6829      6827      6830      6831
      6829      6827      6830      6832      6829      6827      6830      6833
      6830      6833      6836      6837      6830      6833      6836      6838
      6830      6833      6836      6839      6831      6830      6833      6834
      6831      6830      6833      6835      6831      6830      6833      6836
      6832      6830      6833      6834      6832      6830      6833      6835
      6832      6830      6833      6836      6833      6836      6839      6840
      6833      6836      6839      6841      6833      6836      6839      6842
      6834      6833      6836      6837      6834      6833      6836      6838
      6834      6833      6836      6839      6835      6833      6836      6837
      6835      6833      6836      6838      6835      6833      6836      6839
      6836      6839      6842      6843      6836      6839      6842      6844
      6836      6839      6842      6845      6837      6836      6839      6840
      6837      6836      6839      6841      6837      6836      6839      6842
      6838      6836      6839      6840      6838      6836      6839      6841
      6838      6836      6839      6842      6839      6842      6845      6846
      6839      6842      6845      6847      6839      6842      6845      6848
      6840      6839      6842      6843      6840      6839      6842      6844
      6840      6839      6842      6845      6841      6839      6842      6843
      6841      6839      6842      6844      6841      6839      6842      6845
      6842      6845      6848      6849      6842      6845      6848      6850
      6842      6845      6848      6851      6843      6842      6845      6846
      6843      6842      6845      6847      6843      6842      6845      6848
      6844      6842      6845      6846      6844      6842      6845      6847
      6844      6842      6845      6848      6845      6848      6851      6852
      6845      6848      6851      6853      6845      6848      6851      6854
      6846      6845      6848      6849      6846      6845      6848      6850
      6846      6845      6848      6851      6847      6845      6848      6849
      6847      6845      6848      6850      6847      6845      6848      6851
      6849      6848      6851      6852      6849      6848      6851      6853
      6849      6848      6851      6854      6850      6848      6851      6852
      6850      6848      6851      6853      6850      6848      6851      6854
      6855      6856      6871      6872      6855      6856      6871      6873
      6855      6856      6871      6877      6856      6855      6859      6860
      6856      6855      6859      6861      6856      6855      6859      6862
      6856      6855      6863      6864      6856      6855      6863      6865
      6856      6855      6863      6866      6856      6855      6867      6868
      6856      6855      6867      6869      6856      6855      6867      6870
      6856      6871      6877      6874      6857      6856      6855      6859
      6857      6856      6855      6863      6857      6856      6855      6867
      6857      6856      6871      6872      6857      6856      6871      6873
      6857      6856      6871      6877      6858      6856      6855      6859
      6858      6856      6855      6863      6858      6856      6855      6867
      6858      6856      6871      6872      6858      6856      6871      6873
      6858      6856      6871      6877      6859      6855      6856      6871
      6859      6855      6863      6864      6859      6855      6863      6865
      6859      6855      6863      6866      6859      6855      6867      6868
      6859      6855      6867      6869      6859      6855      6867      6870
      6860      6859      6855      6863      6860      6859      6855      6867
      6861      6859      6855      6863      6861      6859      6855      6867
      6862      6859      6855      6863      6862      6859      6855      6867
      6863      6855      6856      6871      6863      6855      6867      6868
      6863      6855      6867      6869      6863      6855      6867      6870
      6864      6863      6855      6867      6865      6863      6855      6867
      6866      6863      6855      6867      6867      6855      6856      6871
      6871      6877      6874      6875      6871      6877      6874      6876
      6871      6877      6874      6878      6872      6871      6877      6874
      6873      6871      6877      6874      6874      6878      6879      6880
      6874      6878      6879      6881      6874      6878      6879      6882
      6875      6874      6878      6879      6876      6874      6878      6879
      6877      6874      6878      6879      6878      6879      6882      6883
      6878      6879      6882      6884      6878      6879      6882      6890
      6879      6882      6884      6885      6879      6882      6890      6891
      6879      6882      6890      6892      6879      6882      6890      6893
      6880      6879      6882      6883      6880      6879      6882      6884
      6880      6879      6882      6890      6881      6879      6882      6883
      6881      6879      6882      6884      6881      6879      6882      6890
      6882      6884      6885      6886      6882      6884      6885      6887
      6882      6890      6893      6894      6883      6882      6884      6885
      6883      6882      6890      6891      6883      6882      6890      6892
      6883      6882      6890      6893      6884      6882      6890      6891
      6884      6882      6890      6892      6884      6882      6890      6893
      6884      6885      6887      6888      6884      6885      6887      6889
      6884      6885      6887      6899      6885      6884      6882      6890
      6885      6887      6899      6900      6885      6887      6899      6901
      6885      6887      6899      6902      6886      6885      6887      6888
      6886      6885      6887      6889      6886      6885      6887      6899
      6887      6899      6902      6903      6887      6899      6902      6904
      6887      6899      6902      6905      6888      6887      6899      6900
      6888      6887      6899      6901      6888      6887      6899      6902
      6889      6887      6899      6900      6889      6887      6899      6901
      6889      6887      6899      6902      6890      6893      6894      6895
      6890      6893      6894      6896      6891      6890      6893      6894
      6892      6890      6893      6894      6893      6894      6896      6897
      6893      6894      6896      6898      6893      6894      6896      6946
      6894      6896      6946      6947      6894      6896      6946      6948
      6894      6896      6946      6949      6895      6894      6896      6897
      6895      6894      6896      6898      6895      6894      6896      6946
      6896      6946      6949      6950      6896      6946      6949      6951
      6896      6946      6949      6952      6897      6896      6946      6947
      6897      6896      6946      6948      6897      6896      6946      6949
      6898      6896      6946      6947      6898      6896      6946      6948
      6898      6896      6946      6949      6899      6902      6905      6906
      6899      6902      6905      6907      6899      6902      6905      6908
      6900      6899      6902      6903      6900      6899      6902      6904
      6900      6899      6902      6905      6901      6899      6902      6903
      6901      6899      6902      6904      6901      6899      6902      6905
      6902      6905      6908      6909      6902      6905      6908      6910
      6902      6905      6908      6911      6903      6902      6905      6906
      6903      6902      6905      6907      6903      6902      6905      6908
      6904      6902      6905      6906      6904      6902      6905      6907
      6904      6902      6905      6908      6905      6908      6911      6912
      6905      6908      6911      6913      6905      6908      6911      6914
      6906      6905      6908      6909      6906      6905      6908      6910
      6906      6905      6908      6911      6907      6905      6908      6909
      6907      6905      6908      6910      6907      6905      6908      6911
      6908      6911      6914      6915      6908      6911      6914      6916
      6908      6911      6914      6917      6909      6908      6911      6912
      6909      6908      6911      6913      6909      6908      6911      6914
      6910      6908      6911      6912      6910      6908      6911      6913
      6910      6908      6911      6914      6911      6914      6917      6918
      6911      6914      6917      6919      6912      6911      6914      6915
      6912      6911      6914      6916      6912      6911      6914      6917
      6913      6911      6914      6915      6913      6911      6914      6916
      6913      6911      6914      6917      6914      6917      6919      6920
      6914      6917      6919      6921      6915      6914      6917      6918
      6915      6914      6917      6919      6916      6914      6917      6918
      6916      6914      6917      6919      6917      6919      6921      6922
      6917      6919      6921      6923      6917      6919      6921      6924
      6918      6917      6919      6920      6918      6917      6919      6921
      6919      6921      6924      6925      6919      6921      6924      6926
      6919      6921      6924      6927      6920      6919      6921      6922
      6920      6919      6921      6923      6920      6919      6921      6924
      6921      6924      6927      6928      6921      6924      6927      6929
      6921      6924      6927      6930      6922      6921      6924      6925
      6922      6921      6924      6926      6922      6921      6924      6927
      6923      6921      6924      6925      6923      6921      6924      6926
      6923      6921      6924      6927      6924      6927      6930      6931
      6924      6927      6930      6932      6924      6927      6930      6933
      6925      6924      6927      6928      6925      6924      6927      6929
      6925      6924      6927      6930      6926      6924      6927      6928
      6926      6924      6927      6929      6926      6924      6927      6930
      6927      6930      6933      6934      6927      6930      6933      6935
      6927      6930      6933      6936      6928      6927      6930      6931
      6928      6927      6930      6932      6928      6927      6930      6933
      6929      6927      6930      6931      6929      6927      6930      6932
      6929      6927      6930      6933      6930      6933      6936      6937
      6930      6933      6936      6938      6930      6933      6936      6939
      6931      6930      6933      6934      6931      6930      6933      6935
      6931      6930      6933      6936      6932      6930      6933      6934
      6932      6930      6933      6935      6932      6930      6933      6936
      6933      6936      6939      6940      6933      6936      6939      6941
      6933      6936      6939      6942      6934      6933      6936      6937
      6934      6933      6936      6938      6934      6933      6936      6939
      6935      6933      6936      6937      6935      6933      6936      6938
      6935      6933      6936      6939      6936      6939      6942      6943
      6936      6939      6942      6944      6936      6939      6942      6945
      6937      6936      6939      6940      6937      6936      6939      6941
      6937      6936      6939      6942      6938      6936      6939      6940
      6938      6936      6939      6941      6938      6936      6939      6942
      6940      6939      6942      6943      6940      6939      6942      6944
      6940      6939      6942      6945      6941      6939      6942      6943
      6941      6939      6942      6944      6941      6939      6942      6945
      6946      6949      6952      6953      6946      6949      6952      6954
      6946      6949      6952      6955      6947      6946      6949      6950
      6947      6946      6949      6951      6947      6946      6949      6952
      6948      6946      6949      6950      6948      6946      6949      6951
      6948      6946      6949      6952      6949      6952      6955      6956
      6949      6952      6955      6957      6949      6952      6955      6958
      6950      6949      6952      6953      6950      6949      6952      6954
      6950      6949      6952      6955      6951      6949      6952      6953
      6951      6949      6952      6954      6951      6949      6952      6955
      6952      6955      6958      6959      6952      6955      6958      6960
      6952      6955      6958      6961      6953      6952      6955      6956
      6953      6952      6955      6957      6953      6952      6955      6958
      6954      6952      6955      6956      6954      6952      6955      6957
      6954      6952      6955      6958      6955      6958      6961      6962
      6955      6958      6961      6963      6955      6958      6961      6964
      6956      6955      6958      6959      6956      6955      6958      6960
      6956      6955      6958      6961      6957      6955      6958      6959
      6957      6955      6958      6960      6957      6955      6958      6961
      6958      6961      6964      6965      6958      6961      6964      6966
      6958      6961      6964      6967      6959      6958      6961      6962
      6959      6958      6961      6963      6959      6958      6961      6964
      6960      6958      6961      6962      6960      6958      6961      6963
      6960      6958      6961      6964      6961      6964      6967      6968
      6961      6964      6967      6969      6961      6964      6967      6970
      6962      6961      6964      6965      6962      6961      6964      6966
      6962      6961      6964      6967      6963      6961      6964      6965
      6963      6961      6964      6966      6963      6961      6964      6967
      6964      6967      6970      6971      6964      6967      6970      6972
      6964      6967      6970      6973      6965      6964      6967      6968
      6965      6964      6967      6969      6965      6964      6967      6970
      6966      6964      6967      6968      6966      6964      6967      6969
      6966      6964      6967      6970      6967      6970      6973      6974
      6967      6970      6973      6975      6967      6970      6973      6976
      6968      6967      6970      6971      6968      6967      6970      6972
      6968      6967      6970      6973      6969      6967      6970      6971
      6969      6967      6970      6972      6969      6967      6970      6973
      6970      6973      6976      6977      6970      6973      6976      6978
      6970      6973      6976      6979      6971      6970      6973      6974
      6971      6970      6973      6975      6971      6970      6973      6976
      6972      6970      6973      6974      6972      6970      6973      6975
      6972      6970      6973      6976      6973      6976      6979      6980
      6973      6976      6979      6981      6973      6976      6979      6982
      6974      6973      6976      6977      6974      6973      6976      6978
      6974      6973      6976      6979      6975      6973      6976      6977
      6975      6973      6976      6978      6975      6973      6976      6979
      6976      6979      6982      6983      6976      6979      6982      6984
      6976      6979      6982      6985      6977      6976      6979      6980
      6977      6976      6979      6981      6977      6976      6979      6982
      6978      6976      6979      6980      6978      6976      6979      6981
      6978      6976      6979      6982      6979      6982      6985      6986
      6979      6982      6985      6987      6979      6982      6985      6988
      6980      6979      6982      6983      6980      6979      6982      6984
      6980      6979      6982      6985      6981      6979      6982      6983
      6981      6979      6982      6984      6981      6979      6982      6985
      6983      6982      6985      6986      6983      6982      6985      6987
      6983      6982      6985      6988      6984      6982      6985      6986
      6984      6982      6985      6987      6984      6982      6985      6988
      6989      6993      6995      6996      6989      6993      6995      6997
      6989      6993      6998      6999      6989      6993      6998      7000
      6989      6993      6998      7004      6990      6989      6993      6994
      6990      6989      6993      6995      6990      6989      6993      6998
      6991      6989      6993      6994      6991      6989      6993      6995
      6991      6989      6993      6998      6992      6989      6993      6994
      6992      6989      6993      6995      6992      6989      6993      6998
      6993      6998      7004      7001      6994      6993      6995      6996
      6994      6993      6995      6997      6994      6993      6998      6999
      6994      6993      6998      7000      6994      6993      6998      7004
      6995      6993      6998      6999      6995      6993      6998      7000
      6995      6993      6998      7004      6996      6995      6993      6998
      6997      6995      6993      6998      6998      7004      7001      7002
      6998      7004      7001      7003      6998      7004      7001      7005
      6999      6998      7004      7001      7000      6998      7004      7001
      7001      7005      7006      7007      7001      7005      7006      7008
      7001      7005      7006      7009      7002      7001      7005      7006
      7003      7001      7005      7006      7004      7001      7005      7006
      7005      7006      7009      7010      7005      7006      7009      7011
      7005      7006      7009      7017      7006      7009      7011      7012
      7006      7009      7017      7018      7006      7009      7017      7019
      7006      7009      7017      7020      7007      7006      7009      7010
      7007      7006      7009      7011      7007      7006      7009      7017
      7008      7006      7009      7010      7008      7006      7009      7011
      7008      7006      7009      7017      7009      7011      7012      7013
      7009      7011      7012      7014      7009      7017      7020      7021
      7010      7009      7011      7012      7010      7009      7017      7018
      7010      7009      7017      7019      7010      7009      7017      7020
      7011      7009      7017      7018      7011      7009      7017      7019
      7011      7009      7017      7020      7011      7012      7014      7015
      7011      7012      7014      7016      7011      7012      7014      7026
      7012      7011      7009      7017      7012      7014      7026      7027
      7012      7014      7026      7028      7012      7014      7026      7029
      7013      7012      7014      7015      7013      7012      7014      7016
      7013      7012      7014      7026      7014      7026      7029      7030
      7014      7026      7029      7031      7014      7026      7029      7032
      7015      7014      7026      7027      7015      7014      7026      7028
      7015      7014      7026      7029      7016      7014      7026      7027
      7016      7014      7026      7028      7016      7014      7026      7029
      7017      7020      7021      7022      7017      7020      7021      7023
      7018      7017      7020      7021      7019      7017      7020      7021
      7020      7021      7023      7024      7020      7021      7023      7025
      7020      7021      7023      7073      7021      7023      7073      7074
      7021      7023      7073      7075      7021      7023      7073      7076
      7022      7021      7023      7024      7022      7021      7023      7025
      7022      7021      7023      7073      7023      7073      7076      7077
      7023      7073      7076      7078      7023      7073      7076      7079
      7024      7023      7073      7074      7024      7023      7073      7075
      7024      7023      7073      7076      7025      7023      7073      7074
      7025      7023      7073      7075      7025      7023      7073      7076
      7026      7029      7032      7033      7026      7029      7032      7034
      7026      7029      7032      7035      7027      7026      7029      7030
      7027      7026      7029      7031      7027      7026      7029      7032
      7028      7026      7029      7030      7028      7026      7029      7031
      7028      7026      7029      7032      7029      7032      7035      7036
      7029      7032      7035      7037      7029      7032      7035      7038
      7030      7029      7032      7033      7030      7029      7032      7034
      7030      7029      7032      7035      7031      7029      7032      7033
      7031      7029      7032      7034      7031      7029      7032      7035
      7032      7035      7038      7039      7032      7035      7038      7040
      7032      7035      7038      7041      7033      7032      7035      7036
      7033      7032      7035      7037      7033      7032      7035      7038
      7034      7032      7035      7036      7034      7032      7035      7037
      7034      7032      7035      7038      7035      7038      7041      7042
      7035      7038      7041      7043      7035      7038      7041      7044
      7036      7035      7038      7039      7036      7035      7038      7040
      7036      7035      7038      7041      7037      7035      7038      7039
      7037      7035      7038      7040      7037      7035      7038      7041
      7038      7041      7044      7045      7038      7041      7044      7046
      7039      7038      7041      7042      7039      7038      7041      7043
      7039      7038      7041      7044      7040      7038      7041      7042
      7040      7038      7041      7043      7040      7038      7041      7044
      7041      7044      7046      7047      7041      7044      7046      7048
      7042      7041      7044      7045      7042      7041      7044      7046
      7043      7041      7044      7045      7043      7041      7044      7046
      7044      7046      7048      7049      7044      7046      7048      7050
      7044      7046      7048      7051      7045      7044      7046      7047
      7045      7044      7046      7048      7046      7048      7051      7052
      7046      7048      7051      7053      7046      7048      7051      7054
      7047      7046      7048      7049      7047      7046      7048      7050
      7047      7046      7048      7051      7048      7051      7054      7055
      7048      7051      7054      7056      7048      7051      7054      7057
      7049      7048      7051      7052      7049      7048      7051      7053
      7049      7048      7051      7054      7050      7048      7051      7052
      7050      7048      7051      7053      7050      7048      7051      7054
      7051      7054      7057      7058      7051      7054      7057      7059
      7051      7054      7057      7060      7052      7051      7054      7055
      7052      7051      7054      7056      7052      7051      7054      7057
      7053      7051      7054      7055      7053      7051      7054      7056
      7053      7051      7054      7057      7054      7057      7060      7061
      7054      7057      7060      7062      7054      7057      7060      7063
      7055      7054      7057      7058      7055      7054      7057      7059
      7055      7054      7057      7060      7056      7054      7057      7058
      7056      7054      7057      7059      7056      7054      7057      7060
      7057      7060      7063      7064      7057      7060      7063      7065
      7057      7060      7063      7066      7058      7057      7060      7061
      7058      7057      7060      7062      7058      7057      7060      7063
      7059      7057      7060      7061      7059      7057      7060      7062
      7059      7057      7060      7063      7060      7063      7066      7067
      7060      7063      7066      7068      7060      7063      7066      7069
      7061      7060      7063      7064      7061      7060      7063      7065
      7061      7060      7063      7066      7062      7060      7063      7064
      7062      7060      7063      7065      7062      7060      7063      7066
      7063      7066      7069      7070      7063      7066      7069      7071
      7063      7066      7069      7072      7064      7063      7066      7067
      7064      7063      7066      7068      7064      7063      7066      7069
      7065      7063      7066      7067      7065      7063      7066      7068
      7065      7063      7066      7069      7067      7066      7069      7070
      7067      7066      7069      7071      7067      7066      7069      7072
      7068      7066      7069      7070      7068      7066      7069      7071
      7068      7066      7069      7072      7073      7076      7079      7080
      7073      7076      7079      7081      7073      7076      7079      7082
      7074      7073      7076      7077      7074      7073      7076      7078
      7074      7073      7076      7079      7075      7073      7076      7077
      7075      7073      7076      7078      7075      7073      7076      7079
      7076      7079      7082      7083      7076      7079      7082      7084
      7076      7079      7082      7085      7077      7076      7079      7080
      7077      7076      7079      7081      7077      7076      7079      7082
      7078      7076      7079      7080      7078      7076      7079      7081
      7078      7076      7079      7082      7079      7082      7085      7086
      7079      7082      7085      7087      7079      7082      7085      7088
      7080      7079      7082      7083      7080      7079      7082      7084
      7080      7079      7082      7085      7081      7079      7082      7083
      7081      7079      7082      7084      7081      7079      7082      7085
      7082      7085      7088      7089      7082      7085      7088      7090
      7082      7085      7088      7091      7083      7082      7085      7086
      7083      7082      7085      7087      7083      7082      7085      7088
      7084      7082      7085      7086      7084      7082      7085      7087
      7084      7082      7085      7088      7085      7088      7091      7092
      7085      7088      7091      7093      7085      7088      7091      7094
      7086      7085      7088      7089      7086      7085      7088      7090
      7086      7085      7088      7091      7087      7085      7088      7089
      7087      7085      7088      7090      7087      7085      7088      7091
      7088      7091      7094      7095      7088      7091      7094      7096
      7088      7091      7094      7097      7089      7088      7091      7092
      7089      7088      7091      7093      7089      7088      7091      7094
      7090      7088      7091      7092      7090      7088      7091      7093
      7090      7088      7091      7094      7091      7094      7097      7098
      7091      7094      7097      7099      7091      7094      7097      7100
      7092      7091      7094      7095      7092      7091      7094      7096
      7092      7091      7094      7097      7093      7091      7094      7095
      7093      7091      7094      7096      7093      7091      7094      7097
      7094      7097      7100      7101      7094      7097      7100      7102
      7094      7097      7100      7103      7095      7094      7097      7098
      7095      7094      7097      7099      7095      7094      7097      7100
      7096      7094      7097      7098      7096      7094      7097      7099
      7096      7094      7097      7100      7097      7100      7103      7104
      7097      7100      7103      7105      7097      7100      7103      7106
      7098      7097      7100      7101      7098      7097      7100      7102
      7098      7097      7100      7103      7099      7097      7100      7101
      7099      7097      7100      7102      7099      7097      7100      7103
      7100      7103      7106      7107      7100      7103      7106      7108
      7100      7103      7106      7109      7101      7100      7103      7104
      7101      7100      7103      7105      7101      7100      7103      7106
      7102      7100      7103      7104      7102      7100      7103      7105
      7102      7100      7103      7106      7103      7106      7109      7110
      7103      7106      7109      7111      7103      7106      7109      7112
      7104      7103      7106      7107      7104      7103      7106      7108
      7104      7103      7106      7109      7105      7103      7106      7107
      7105      7103      7106      7108      7105      7103      7106      7109
      7106      7109      7112      7113      7106      7109      7112      7114
      7106      7109      7112      7115      7107      7106      7109      7110
      7107      7106      7109      7111      7107      7106      7109      7112
      7108      7106      7109      7110      7108      7106      7109      7111
      7108      7106      7109      7112      7110      7109      7112      7113
      7110      7109      7112      7114      7110      7109      7112      7115
      7111      7109      7112      7113      7111      7109      7112      7114
      7111      7109      7112      7115      7116      7117      7132      7133
      7116      7117      7132      7134      7116      7117      7132      7138
      7117      7116      7120      7121      7117      7116      7120      7122
      7117      7116      7120      7123      7117      7116      7124      7125
      7117      7116      7124      7126      7117      7116      7124      7127
      7117      7116      7128      7129      7117      7116      7128      7130
      7117      7116      7128      7131      7117      7132      7138      7135
      7118      7117      7116      7120      7118      7117      7116      7124
      7118      7117      7116      7128      7118      7117      7132      7133
      7118      7117      7132      7134      7118      7117      7132      7138
      7119      7117      7116      7120      7119      7117      7116      7124
      7119      7117      7116      7128      7119      7117      7132      7133
      7119      7117      7132      7134      7119      7117      7132      7138
      7120      7116      7117      7132      7120      7116      7124      7125
      7120      7116      7124      7126      7120      7116      7124      7127
      7120      7116      7128      7129      7120      7116      7128      7130
      7120      7116      7128      7131      7121      7120      7116      7124
      7121      7120      7116      7128      7122      7120      7116      7124
      7122      7120      7116      7128      7123      7120      7116      7124
      7123      7120      7116      7128      7124      7116      7117      7132
      7124      7116      7128      7129      7124      7116      7128      7130
      7124      7116      7128      7131      7125      7124      7116      7128
      7126      7124      7116      7128      7127      7124      7116      7128
      7128      7116      7117      7132      7132      7138      7135      7136
      7132      7138      7135      7137      7132      7138      7135      7139
      7133      7132      7138      7135      7134      7132      7138      7135
      7135      7139      7140      7141      7135      7139      7140      7142
      7135      7139      7140      7143      7136      7135      7139      7140
      7137      7135      7139      7140      7138      7135      7139      7140
      7139      7140      7143      7144      7139      7140      7143      7145
      7139      7140      7143      7151      7140      7143      7145      7146
      7140      7143      7151      7152      7140      7143      7151      7153
      7140      7143      7151      7154      7141      7140      7143      7144
      7141      7140      7143      7145      7141      7140      7143      7151
      7142      7140      7143      7144      7142      7140      7143      7145
      7142      7140      7143      7151      7143      7145      7146      7147
      7143      7145      7146      7148      7143      7151      7154      7155
      7144      7143      7145      7146      7144      7143      7151      7152
      7144      7143      7151      7153      7144      7143      7151      7154
      7145      7143      7151      7152      7145      7143      7151      7153
      7145      7143      7151      7154      7145      7146      7148      7149
      7145      7146      7148      7150      7145      7146      7148      7160
      7146      7145      7143      7151      7146      7148      7160      7161
      7146      7148      7160      7162      7146      7148      7160      7163
      7147      7146      7148      7149      7147      7146      7148      7150
      7147      7146      7148      7160      7148      7160      7163      7164
      7148      7160      7163      7165      7148      7160      7163      7166
      7149      7148      7160      7161      7149      7148      7160      7162
      7149      7148      7160      7163      7150      7148      7160      7161
      7150      7148      7160      7162      7150      7148      7160      7163
      7151      7154      7155      7156      7151      7154      7155      7157
      7152      7151      7154      7155      7153      7151      7154      7155
      7154      7155      7157      7158      7154      7155      7157      7159
      7154      7155      7157      7207      7155      7157      7207      7208
      7155      7157      7207      7209      7155      7157      7207      7210
      7156      7155      7157      7158      7156      7155      7157      7159
      7156      7155      7157      7207      7157      7207      7210      7211
      7157      7207      7210      7212      7157      7207      7210      7213
      7158      7157      7207      7208      7158      7157      7207      7209
      7158      7157      7207      7210      7159      7157      7207      7208
      7159      7157      7207      7209      7159      7157      7207      7210
      7160      7163      7166      7167      7160      7163      7166      7168
      7160      7163      7166      7169      7161      7160      7163      7164
      7161      7160      7163      7165      7161      7160      7163      7166
      7162      7160      7163      7164      7162      7160      7163      7165
      7162      7160      7163      7166      7163      7166      7169      7170
      7163      7166      7169      7171      7163      7166      7169      7172
      7164      7163      7166      7167      7164      7163      7166      7168
      7164      7163      7166      7169      7165      7163      7166      7167
      7165      7163      7166      7168      7165      7163      7166      7169
      7166      7169      7172      7173      7166      7169      7172      7174
      7166      7169      7172      7175      7167      7166      7169      7170
      7167      7166      7169      7171      7167      7166      7169      7172
      7168      7166      7169      7170      7168      7166      7169      7171
      7168      7166      7169      7172      7169      7172      7175      7176
      7169      7172      7175      7177      7169      7172      7175      7178
      7170      7169      7172      7173      7170      7169      7172      7174
      7170      7169      7172      7175      7171      7169      7172      7173
      7171      7169      7172      7174      7171      7169      7172      7175
      7172      7175      7178      7179      7172      7175      7178      7180
      7173      7172      7175      7176      7173      7172      7175      7177
      7173      7172      7175      7178      7174      7172      7175      7176
      7174      7172      7175      7177      7174      7172      7175      7178
      7175      7178      7180      7181      7175      7178      7180      7182
      7176      7175      7178      7179      7176      7175      7178      7180
      7177      7175      7178      7179      7177      7175      7178      7180
      7178      7180      7182      7183      7178      7180      7182      7184
      7178      7180      7182      7185      7179      7178      7180      7181
      7179      7178      7180      7182      7180      7182      7185      7186
      7180      7182      7185      7187      7180      7182      7185      7188
      7181      7180      7182      7183      7181      7180      7182      7184
      7181      7180      7182      7185      7182      7185      7188      7189
      7182      7185      7188      7190      7182      7185      7188      7191
      7183      7182      7185      7186      7183      7182      7185      7187
      7183      7182      7185      7188      7184      7182      7185      7186
      7184      7182      7185      7187      7184      7182      7185      7188
      7185      7188      7191      7192      7185      7188      7191      7193
      7185      7188      7191      7194      7186      7185      7188      7189
      7186      7185      7188      7190      7186      7185      7188      7191
      7187      7185      7188      7189      7187      7185      7188      7190
      7187      7185      7188      7191      7188      7191      7194      7195
      7188      7191      7194      7196      7188      7191      7194      7197
      7189      7188      7191      7192      7189      7188      7191      7193
      7189      7188      7191      7194      7190      7188      7191      7192
      7190      7188      7191      7193      7190      7188      7191      7194
      7191      7194      7197      7198      7191      7194      7197      7199
      7191      7194      7197      7200      7192      7191      7194      7195
      7192      7191      7194      7196      7192      7191      7194      7197
      7193      7191      7194      7195      7193      7191      7194      7196
      7193      7191      7194      7197      7194      7197      7200      7201
      7194      7197      7200      7202      7194      7197      7200      7203
      7195      7194      7197      7198      7195      7194      7197      7199
      7195      7194      7197      7200      7196      7194      7197      7198
      7196      7194      7197      7199      7196      7194      7197      7200
      7197      7200      7203      7204      7197      7200      7203      7205
      7197      7200      7203      7206      7198      7197      7200      7201
      7198      7197      7200      7202      7198      7197      7200      7203
      7199      7197      7200      7201      7199      7197      7200      7202
      7199      7197      7200      7203      7201      7200      7203      7204
      7201      7200      7203      7205      7201      7200      7203      7206
      7202      7200      7203      7204      7202      7200      7203      7205
      7202      7200      7203      7206      7207      7210      7213      7214
      7207      7210      7213      7215      7207      7210      7213      7216
      7208      7207      7210      7211      7208      7207      7210      7212
      7208      7207      7210      7213      7209      7207      7210      7211
      7209      7207      7210      7212      7209      7207      7210      7213
      7210      7213      7216      7217      7210      7213      7216      7218
      7210      7213      7216      7219      7211      7210      7213      7214
      7211      7210      7213      7215      7211      7210      7213      7216
      7212      7210      7213      7214      7212      7210      7213      7215
      7212      7210      7213      7216      7213      7216      7219      7220
      7213      7216      7219      7221      7213      7216      7219      7222
      7214      7213      7216      7217      7214      7213      7216      7218
      7214      7213      7216      7219      7215      7213      7216      7217
      7215      7213      7216      7218      7215      7213      7216      7219
      7216      7219      7222      7223      7216      7219      7222      7224
      7216      7219      7222      7225      7217      7216      7219      7220
      7217      7216      7219      7221      7217      7216      7219      7222
      7218      7216      7219      7220      7218      7216      7219      7221
      7218      7216      7219      7222      7219      7222      7225      7226
      7219      7222      7225      7227      7219      7222      7225      7228
      7220      7219      7222      7223      7220      7219      7222      7224
      7220      7219      7222      7225      7221      7219      7222      7223
      7221      7219      7222      7224      7221      7219      7222      7225
      7222      7225      7228      7229      7222      7225      7228      7230
      7222      7225      7228      7231      7223      7222      7225      7226
      7223      7222      7225      7227      7223      7222      7225      7228
      7224      7222      7225      7226      7224      7222      7225      7227
      7224      7222      7225      7228      7225      7228      7231      7232
      7225      7228      7231      7233      7225      7228      7231      7234
      7226      7225      7228      7229      7226      7225      7228      7230
      7226      7225      7228      7231      7227      7225      7228      7229
      7227      7225      7228      7230      7227      7225      7228      7231
      7228      7231      7234      7235      7228      7231      7234      7236
      7228      7231      7234      7237      7229      7228      7231      7232
      7229      7228      7231      7233      7229      7228      7231      7234
      7230      7228      7231      7232      7230      7228      7231      7233
      7230      7228      7231      7234      7231      7234      7237      7238
      7231      7234      7237      7239      7231      7234      7237      7240
      7232      7231      7234      7235      7232      7231      7234      7236
      7232      7231      7234      7237      7233      7231      7234      7235
      7233      7231      7234      7236      7233      7231      7234      7237
      7234      7237      7240      7241      7234      7237      7240      7242
      7234      7237      7240      7243      7235      7234      7237      7238
      7235      7234      7237      7239      7235      7234      7237      7240
      7236      7234      7237      7238      7236      7234      7237      7239
      7236      7234      7237      7240      7237      7240      7243      7244
      7237      7240      7243      7245      7237      7240      7243      7246
      7238      7237      7240      7241      7238      7237      7240      7242
      7238      7237      7240      7243      7239      7237      7240      7241
      7239      7237      7240      7242      7239      7237      7240      7243
      7240      7243      7246      7247      7240      7243      7246      7248
      7240      7243      7246      7249      7241      7240      7243      7244
      7241      7240      7243      7245      7241      7240      7243      7246
      7242      7240      7243      7244      7242      7240      7243      7245
      7242      7240      7243      7246      7244      7243      7246      7247
      7244      7243      7246      7248      7244      7243      7246      7249
      7245      7243      7246      7247      7245      7243      7246      7248
      7245      7243      7246      7249      7250      7251      7266      7267
      7250      7251      7266      7268      7250      7251      7266      7272
      7251      7250      7254      7255      7251      7250      7254      7256
      7251      7250      7254      7257      7251      7250      7258      7259
      7251      7250      7258      7260      7251      7250      7258      7261
      7251      7250      7262      7263      7251      7250      7262      7264
      7251      7250      7262      7265      7251      7266      7272      7269
      7252      7251      7250      7254      7252      7251      7250      7258
      7252      7251      7250      7262      7252      7251      7266      7267
      7252      7251      7266      7268      7252      7251      7266      7272
      7253      7251      7250      7254      7253      7251      7250      7258
      7253      7251      7250      7262      7253      7251      7266      7267
      7253      7251      7266      7268      7253      7251      7266      7272
      7254      7250      7251      7266      7254      7250      7258      7259
      7254      7250      7258      7260      7254      7250      7258      7261
      7254      7250      7262      7263      7254      7250      7262      7264
      7254      7250      7262      7265      7255      7254      7250      7258
      7255      7254      7250      7262      7256      7254      7250      7258
      7256      7254      7250      7262      7257      7254      7250      7258
      7257      7254      7250      7262      7258      7250      7251      7266
      7258      7250      7262      7263      7258      7250      7262      7264
      7258      7250      7262      7265      7259      7258      7250      7262
      7260      7258      7250      7262      7261      7258      7250      7262
      7262      7250      7251      7266      7266      7272      7269      7270
      7266      7272      7269      7271      7266      7272      7269      7273
      7267      7266      7272      7269      7268      7266      7272      7269
      7269      7273      7274      7275      7269      7273      7274      7276
      7269      7273      7274      7277      7270      7269      7273      7274
      7271      7269      7273      7274      7272      7269      7273      7274
      7273      7274      7277      7278      7273      7274      7277      7279
      7273      7274      7277      7285      7274      7277      7279      7280
      7274      7277      7285      7286      7274      7277      7285      7287
      7274      7277      7285      7288      7275      7274      7277      7278
      7275      7274      7277      7279      7275      7274      7277      7285
      7276      7274      7277      7278      7276      7274      7277      7279
      7276      7274      7277      7285      7277      7279      7280      7281
      7277      7279      7280      7282      7277      7285      7288      7289
      7278      7277      7279      7280      7278      7277      7285      7286
      7278      7277      7285      7287      7278      7277      7285      7288
      7279      7277      7285      7286      7279      7277      7285      7287
      7279      7277      7285      7288      7279      7280      7282      7283
      7279      7280      7282      7284      7279      7280      7282      7294
      7280      7279      7277      7285      7280      7282      7294      7295
      7280      7282      7294      7296      7280      7282      7294      7297
      7281      7280      7282      7283      7281      7280      7282      7284
      7281      7280      7282      7294      7282      7294      7297      7298
      7282      7294      7297      7299      7282      7294      7297      7300
      7283      7282      7294      7295      7283      7282      7294      7296
      7283      7282      7294      7297      7284      7282      7294      7295
      7284      7282      7294      7296      7284      7282      7294      7297
      7285      7288      7289      7290      7285      7288      7289      7291
      7286      7285      7288      7289      7287      7285      7288      7289
      7288      7289      7291      7292      7288      7289      7291      7293
      7288      7289      7291      7341      7289      7291      7341      7342
      7289      7291      7341      7343      7289      7291      7341      7344
      7290      7289      7291      7292      7290      7289      7291      7293
      7290      7289      7291      7341      7291      7341      7344      7345
      7291      7341      7344      7346      7291      7341      7344      7347
      7292      7291      7341      7342      7292      7291      7341      7343
      7292      7291      7341      7344      7293      7291      7341      7342
      7293      7291      7341      7343      7293      7291      7341      7344
      7294      7297      7300      7301      7294      7297      7300      7302
      7294      7297      7300      7303      7295      7294      7297      7298
      7295      7294      7297      7299      7295      7294      7297      7300
      7296      7294      7297      7298      7296      7294      7297      7299
      7296      7294      7297      7300      7297      7300      7303      7304
      7297      7300      7303      7305      7297      7300      7303      7306
      7298      7297      7300      7301      7298      7297      7300      7302
      7298      7297      7300      7303      7299      7297      7300      7301
      7299      7297      7300      7302      7299      7297      7300      7303
      7300      7303      7306      7307      7300      7303      7306      7308
      7300      7303      7306      7309      7301      7300      7303      7304
      7301      7300      7303      7305      7301      7300      7303      7306
      7302      7300      7303      7304      7302      7300      7303      7305
      7302      7300      7303      7306      7303      7306      7309      7310
      7303      7306      7309      7311      7303      7306      7309      7312
      7304      7303      7306      7307      7304      7303      7306      7308
      7304      7303      7306      7309      7305      7303      7306      7307
      7305      7303      7306      7308      7305      7303      7306      7309
      7306      7309      7312      7313      7306      7309      7312      7314
      7307      7306      7309      7310      7307      7306      7309      7311
      7307      7306      7309      7312      7308      7306      7309      7310
      7308      7306      7309      7311      7308      7306      7309      7312
      7309      7312      7314      7315      7309      7312      7314      7316
      7310      7309      7312      7313      7310      7309      7312      7314
      7311      7309      7312      7313      7311      7309      7312      7314
      7312      7314      7316      7317      7312      7314      7316      7318
      7312      7314      7316      7319      7313      7312      7314      7315
      7313      7312      7314      7316      7314      7316      7319      7320
      7314      7316      7319      7321      7314      7316      7319      7322
      7315      7314      7316      7317      7315      7314      7316      7318
      7315      7314      7316      7319      7316      7319      7322      7323
      7316      7319      7322      7324      7316      7319      7322      7325
      7317      7316      7319      7320      7317      7316      7319      7321
      7317      7316      7319      7322      7318      7316      7319      7320
      7318      7316      7319      7321      7318      7316      7319      7322
      7319      7322      7325      7326      7319      7322      7325      7327
      7319      7322      7325      7328      7320      7319      7322      7323
      7320      7319      7322      7324      7320      7319      7322      7325
      7321      7319      7322      7323      7321      7319      7322      7324
      7321      7319      7322      7325      7322      7325      7328      7329
      7322      7325      7328      7330      7322      7325      7328      7331
      7323      7322      7325      7326      7323      7322      7325      7327
      7323      7322      7325      7328      7324      7322      7325      7326
      7324      7322      7325      7327      7324      7322      7325      7328
      7325      7328      7331      7332      7325      7328      7331      7333
      7325      7328      7331      7334      7326      7325      7328      7329
      7326      7325      7328      7330      7326      7325      7328      7331
      7327      7325      7328      7329      7327      7325      7328      7330
      7327      7325      7328      7331      7328      7331      7334      7335
      7328      7331      7334      7336      7328      7331      7334      7337
      7329      7328      7331      7332      7329      7328      7331      7333
      7329      7328      7331      7334      7330      7328      7331      7332
      7330      7328      7331      7333      7330      7328      7331      7334
      7331      7334      7337      7338      7331      7334      7337      7339
      7331      7334      7337      7340      7332      7331      7334      7335
      7332      7331      7334      7336      7332      7331      7334      7337
      7333      7331      7334      7335      7333      7331      7334      7336
      7333      7331      7334      7337      7335      7334      7337      7338
      7335      7334      7337      7339      7335      7334      7337      7340
      7336      7334      7337      7338      7336      7334      7337      7339
      7336      7334      7337      7340      7341      7344      7347      7348
      7341      7344      7347      7349      7341      7344      7347      7350
      7342      7341      7344      7345      7342      7341      7344      7346
      7342      7341      7344      7347      7343      7341      7344      7345
      7343      7341      7344      7346      7343      7341      7344      7347
      7344      7347      7350      7351      7344      7347      7350      7352
      7344      7347      7350      7353      7345      7344      7347      7348
      7345      7344      7347      7349      7345      7344      7347      7350
      7346      7344      7347      7348      7346      7344      7347      7349
      7346      7344      7347      7350      7347      7350      7353      7354
      7347      7350      7353      7355      7347      7350      7353      7356
      7348      7347      7350      7351      7348      7347      7350      7352
      7348      7347      7350      7353      7349      7347      7350      7351
      7349      7347      7350      7352      7349      7347      7350      7353
      7350      7353      7356      7357      7350      7353      7356      7358
      7350      7353      7356      7359      7351      7350      7353      7354
      7351      7350      7353      7355      7351      7350      7353      7356
      7352      7350      7353      7354      7352      7350      7353      7355
      7352      7350      7353      7356      7353      7356      7359      7360
      7353      7356      7359      7361      7353      7356      7359      7362
      7354      7353      7356      7357      7354      7353      7356      7358
      7354      7353      7356      7359      7355      7353      7356      7357
      7355      7353      7356      7358      7355      7353      7356      7359
      7356      7359      7362      7363      7356      7359      7362      7364
      7356      7359      7362      7365      7357      7356      7359      7360
      7357      7356      7359      7361      7357      7356      7359      7362
      7358      7356      7359      7360      7358      7356      7359      7361
      7358      7356      7359      7362      7359      7362      7365      7366
      7359      7362      7365      7367      7359      7362      7365      7368
      7360      7359      7362      7363      7360      7359      7362      7364
      7360      7359      7362      7365      7361      7359      7362      7363
      7361      7359      7362      7364      7361      7359      7362      7365
      7362      7365      7368      7369      7362      7365      7368      7370
      7362      7365      7368      7371      7363      7362      7365      7366
      7363      7362      7365      7367      7363      7362      7365      7368
      7364      7362      7365      7366      7364      7362      7365      7367
      7364      7362      7365      7368      7365      7368      7371      7372
      7365      7368      7371      7373      7365      7368      7371      7374
      7366      7365      7368      7369      7366      7365      7368      7370
      7366      7365      7368      7371      7367      7365      7368      7369
      7367      7365      7368      7370      7367      7365      7368      7371
      7368      7371      7374      7375      7368      7371      7374      7376
      7368      7371      7374      7377      7369      7368      7371      7372
      7369      7368      7371      7373      7369      7368      7371      7374
      7370      7368      7371      7372      7370      7368      7371      7373
      7370      7368      7371      7374      7371      7374      7377      7378
      7371      7374      7377      7379      7371      7374      7377      7380
      7372      7371      7374      7375      7372      7371      7374      7376
      7372      7371      7374      7377      7373      7371      7374      7375
      7373      7371      7374      7376      7373      7371      7374      7377
      7374      7377      7380      7381      7374      7377      7380      7382
      7374      7377      7380      7383      7375      7374      7377      7378
      7375      7374      7377      7379      7375      7374      7377      7380
      7376      7374      7377      7378      7376      7374      7377      7379
      7376      7374      7377      7380      7378      7377      7380      7381
      7378      7377      7380      7382      7378      7377      7380      7383
      7379      7377      7380      7381      7379      7377      7380      7382
      7379      7377      7380      7383      7384      7388      7390      7391
      7384      7388      7390      7392      7384      7388      7393      7394
      7384      7388      7393      7395      7384      7388      7393      7399
      7385      7384      7388      7389      7385      7384      7388      7390
      7385      7384      7388      7393      7386      7384      7388      7389
      7386      7384      7388      7390      7386      7384      7388      7393
      7387      7384      7388      7389      7387      7384      7388      7390
      7387      7384      7388      7393      7388      7393      7399      7396
      7389      7388      7390      7391      7389      7388      7390      7392
      7389      7388      7393      7394      7389      7388      7393      7395
      7389      7388      7393      7399      7390      7388      7393      7394
      7390      7388      7393      7395      7390      7388      7393      7399
      7391      7390      7388      7393      7392      7390      7388      7393
      7393      7399      7396      7397      7393      7399      7396      7398
      7393      7399      7396      7400      7394      7393      7399      7396
      7395      7393      7399      7396      7396      7400      7401      7402
      7396      7400      7401      7403      7396      7400      7401      7404
      7397      7396      7400      7401      7398      7396      7400      7401
      7399      7396      7400      7401      7400      7401      7404      7405
      7400      7401      7404      7406      7400      7401      7404      7412
      7401      7404      7406      7407      7401      7404      7412      7413
      7401      7404      7412      7414      7401      7404      7412      7415
      7402      7401      7404      7405      7402      7401      7404      7406
      7402      7401      7404      7412      7403      7401      7404      7405
      7403      7401      7404      7406      7403      7401      7404      7412
      7404      7406      7407      7408      7404      7406      7407      7409
      7404      7412      7415      7416      7405      7404      7406      7407
      7405      7404      7412      7413      7405      7404      7412      7414
      7405      7404      7412      7415      7406      7404      7412      7413
      7406      7404      7412      7414      7406      7404      7412      7415
      7406      7407      7409      7410      7406      7407      7409      7411
      7406      7407      7409      7421      7407      7406      7404      7412
      7407      7409      7421      7422      7407      7409      7421      7423
      7407      7409      7421      7424      7408      7407      7409      7410
      7408      7407      7409      7411      7408      7407      7409      7421
      7409      7421      7424      7425      7409      7421      7424      7426
      7409      7421      7424      7427      7410      7409      7421      7422
      7410      7409      7421      7423      7410      7409      7421      7424
      7411      7409      7421      7422      7411      7409      7421      7423
      7411      7409      7421      7424      7412      7415      7416      7417
      7412      7415      7416      7418      7413      7412      7415      7416
      7414      7412      7415      7416      7415      7416      7418      7419
      7415      7416      7418      7420      7415      7416      7418      7468
      7416      7418      7468      7469      7416      7418      7468      7470
      7416      7418      7468      7471      7417      7416      7418      7419
      7417      7416      7418      7420      7417      7416      7418      7468
      7418      7468      7471      7472      7418      7468      7471      7473
      7418      7468      7471      7474      7419      7418      7468      7469
      7419      7418      7468      7470      7419      7418      7468      7471
      7420      7418      7468      7469      7420      7418      7468      7470
      7420      7418      7468      7471      7421      7424      7427      7428
      7421      7424      7427      7429      7421      7424      7427      7430
      7422      7421      7424      7425      7422      7421      7424      7426
      7422      7421      7424      7427      7423      7421      7424      7425
      7423      7421      7424      7426      7423      7421      7424      7427
      7424      7427      7430      7431      7424      7427      7430      7432
      7424      7427      7430      7433      7425      7424      7427      7428
      7425      7424      7427      7429      7425      7424      7427      7430
      7426      7424      7427      7428      7426      7424      7427      7429
      7426      7424      7427      7430      7427      7430      7433      7434
      7427      7430      7433      7435      7427      7430      7433      7436
      7428      7427      7430      7431      7428      7427      7430      7432
      7428      7427      7430      7433      7429      7427      7430      7431
      7429      7427      7430      7432      7429      7427      7430      7433
      7430      7433      7436      7437      7430      7433      7436      7438
      7430      7433      7436      7439      7431      7430      7433      7434
      7431      7430      7433      7435      7431      7430      7433      7436
      7432      7430      7433      7434      7432      7430      7433      7435
      7432      7430      7433      7436      7433      7436      7439      7440
      7433      7436      7439      7441      7434      7433      7436      7437
      7434      7433      7436      7438      7434      7433      7436      7439
      7435      7433      7436      7437      7435      7433      7436      7438
      7435      7433      7436      7439      7436      7439      7441      7442
      7436      7439      7441      7443      7437      7436      7439      7440
      7437      7436      7439      7441      7438      7436      7439      7440
      7438      7436      7439      7441      7439      7441      7443      7444
      7439      7441      7443      7445      7439      7441      7443      7446
      7440      7439      7441      7442      7440      7439      7441      7443
      7441      7443      7446      7447      7441      7443      7446      7448
      7441      7443      7446      7449      7442      7441      7443      7444
      7442      7441      7443      7445      7442      7441      7443      7446
      7443      7446      7449      7450      7443      7446      7449      7451
      7443      7446      7449      7452      7444      7443      7446      7447
      7444      7443      7446      7448      7444      7443      7446      7449
      7445      7443      7446      7447      7445      7443      7446      7448
      7445      7443      7446      7449      7446      7449      7452      7453
      7446      7449      7452      7454      7446      7449      7452      7455
      7447      7446      7449      7450      7447      7446      7449      7451
      7447      7446      7449      7452      7448      7446      7449      7450
      7448      7446      7449      7451      7448      7446      7449      7452
      7449      7452      7455      7456      7449      7452      7455      7457
      7449      7452      7455      7458      7450      7449      7452      7453
      7450      7449      7452      7454      7450      7449      7452      7455
      7451      7449      7452      7453      7451      7449      7452      7454
      7451      7449      7452      7455      7452      7455      7458      7459
      7452      7455      7458      7460      7452      7455      7458      7461
      7453      7452      7455      7456      7453      7452      7455      7457
      7453      7452      7455      7458      7454      7452      7455      7456
      7454      7452      7455      7457      7454      7452      7455      7458
      7455      7458      7461      7462      7455      7458      7461      7463
      7455      7458      7461      7464      7456      7455      7458      7459
      7456      7455      7458      7460      7456      7455      7458      7461
      7457      7455      7458      7459      7457      7455      7458      7460
      7457      7455      7458      7461      7458      7461      7464      7465
      7458      7461      7464      7466      7458      7461      7464      7467
      7459      7458      7461      7462      7459      7458      7461      7463
      7459      7458      7461      7464      7460      7458      7461      7462
      7460      7458      7461      7463      7460      7458      7461      7464
      7462      7461      7464      7465      7462      7461      7464      7466
      7462      7461      7464      7467      7463      7461      7464      7465
      7463      7461      7464      7466      7463      7461      7464      7467
      7468      7471      7474      7475      7468      7471      7474      7476
      7468      7471      7474      7477      7469      7468      7471      7472
      7469      7468      7471      7473      7469      7468      7471      7474
      7470      7468      7471      7472      7470      7468      7471      7473
      7470      7468      7471      7474      7471      7474      7477      7478
      7471      7474      7477      7479      7471      7474      7477      7480
      7472      7471      7474      7475      7472      7471      7474      7476
      7472      7471      7474      7477      7473      7471      7474      7475
      7473      7471      7474      7476      7473      7471      7474      7477
      7474      7477      7480      7481      7474      7477      7480      7482
      7474      7477      7480      7483      7475      7474      7477      7478
      7475      7474      7477      7479      7475      7474      7477      7480
      7476      7474      7477      7478      7476      7474      7477      7479
      7476      7474      7477      7480      7477      7480      7483      7484
      7477      7480      7483      7485      7477      7480      7483      7486
      7478      7477      7480      7481      7478      7477      7480      7482
      7478      7477      7480      7483      7479      7477      7480      7481
      7479      7477      7480      7482      7479      7477      7480      7483
      7480      7483      7486      7487      7480      7483      7486      7488
      7480      7483      7486      7489      7481      7480      7483      7484
      7481      7480      7483      7485      7481      7480      7483      7486
      7482      7480      7483      7484      7482      7480      7483      7485
      7482      7480      7483      7486      7483      7486      7489      7490
      7483      7486      7489      7491      7483      7486      7489      7492
      7484      7483      7486      7487      7484      7483      7486      7488
      7484      7483      7486      7489      7485      7483      7486      7487
      7485      7483      7486      7488      7485      7483      7486      7489
      7486      7489      7492      7493      7486      7489      7492      7494
      7486      7489      7492      7495      7487      7486      7489      7490
      7487      7486      7489      7491      7487      7486      7489      7492
      7488      7486      7489      7490      7488      7486      7489      7491
      7488      7486      7489      7492      7489      7492      7495      7496
      7489      7492      7495      7497      7489      7492      7495      7498
      7490      7489      7492      7493      7490      7489      7492      7494
      7490      7489      7492      7495      7491      7489      7492      7493
      7491      7489      7492      7494      7491      7489      7492      7495
      7492      7495      7498      7499      7492      7495      7498      7500
      7492      7495      7498      7501      7493      7492      7495      7496
      7493      7492      7495      7497      7493      7492      7495      7498
      7494      7492      7495      7496      7494      7492      7495      7497
      7494      7492      7495      7498      7495      7498      7501      7502
      7495      7498      7501      7503      7495      7498      7501      7504
      7496      7495      7498      7499      7496      7495      7498      7500
      7496      7495      7498      7501      7497      7495      7498      7499
      7497      7495      7498      7500      7497      7495      7498      7501
      7498      7501      7504      7505      7498      7501      7504      7506
      7498      7501      7504      7507      7499      7498      7501      7502
      7499      7498      7501      7503      7499      7498      7501      7504
      7500      7498      7501      7502      7500      7498      7501      7503
      7500      7498      7501      7504      7501      7504      7507      7508
      7501      7504      7507      7509      7501      7504      7507      7510
      7502      7501      7504      7505      7502      7501      7504      7506
      7502      7501      7504      7507      7503      7501      7504      7505
      7503      7501      7504      7506      7503      7501      7504      7507
      7505      7504      7507      7508      7505      7504      7507      7509
      7505      7504      7507      7510      7506      7504      7507      7508
      7506      7504      7507      7509      7506      7504      7507      7510
      7511      7512      7527      7528      7511      7512      7527      7529
      7511      7512      7527      7533      7512      7511      7515      7516
      7512      7511      7515      7517      7512      7511      7515      7518
      7512      7511      7519      7520      7512      7511      7519      7521
      7512      7511      7519      7522      7512      7511      7523      7524
      7512      7511      7523      7525      7512      7511      7523      7526
      7512      7527      7533      7530      7513      7512      7511      7515
      7513      7512      7511      7519      7513      7512      7511      7523
      7513      7512      7527      7528      7513      7512      7527      7529
      7513      7512      7527      7533      7514      7512      7511      7515
      7514      7512      7511      7519      7514      7512      7511      7523
      7514      7512      7527      7528      7514      7512      7527      7529
      7514      7512      7527      7533      7515      7511      7512      7527
      7515      7511      7519      7520      7515      7511      7519      7521
      7515      7511      7519      7522      7515      7511      7523      7524
      7515      7511      7523      7525      7515      7511      7523      7526
      7516      7515      7511      7519      7516      7515      7511      7523
      7517      7515      7511      7519      7517      7515      7511      7523
      7518      7515      7511      7519      7518      7515      7511      7523
      7519      7511      7512      7527      7519      7511      7523      7524
      7519      7511      7523      7525      7519      7511      7523      7526
      7520      7519      7511      7523      7521      7519      7511      7523
      7522      7519      7511      7523      7523      7511      7512      7527
      7527      7533      7530      7531      7527      7533      7530      7532
      7527      7533      7530      7534      7528      7527      7533      7530
      7529      7527      7533      7530      7530      7534      7535      7536
      7530      7534      7535      7537      7530      7534      7535      7538
      7531      7530      7534      7535      7532      7530      7534      7535
      7533      7530      7534      7535      7534      7535      7538      7539
      7534      7535      7538      7540      7534      7535      7538      7546
      7535      7538      7540      7541      7535      7538      7546      7547
      7535      7538      7546      7548      7535      7538      7546      7549
      7536      7535      7538      7539      7536      7535      7538      7540
      7536      7535      7538      7546      7537      7535      7538      7539
      7537      7535      7538      7540      7537      7535      7538      7546
      7538      7540      7541      7542      7538      7540      7541      7543
      7538      7546      7549      7550      7539      7538      7540      7541
      7539      7538      7546      7547      7539      7538      7546      7548
      7539      7538      7546      7549      7540      7538      7546      7547
      7540      7538      7546      7548      7540      7538      7546      7549
      7540      7541      7543      7544      7540      7541      7543      7545
      7540      7541      7543      7555      7541      7540      7538      7546
      7541      7543      7555      7556      7541      7543      7555      7557
      7541      7543      7555      7558      7542      7541      7543      7544
      7542      7541      7543      7545      7542      7541      7543      7555
      7543      7555      7558      7559      7543      7555      7558      7560
      7543      7555      7558      7561      7544      7543      7555      7556
      7544      7543      7555      7557      7544      7543      7555      7558
      7545      7543      7555      7556      7545      7543      7555      7557
      7545      7543      7555      7558      7546      7549      7550      7551
      7546      7549      7550      7552      7547      7546      7549      7550
      7548      7546      7549      7550      7549      7550      7552      7553
      7549      7550      7552      7554      7549      7550      7552      7602
      7550      7552      7602      7603      7550      7552      7602      7604
      7550      7552      7602      7605      7551      7550      7552      7553
      7551      7550      7552      7554      7551      7550      7552      7602
      7552      7602      7605      7606      7552      7602      7605      7607
      7552      7602      7605      7608      7553      7552      7602      7603
      7553      7552      7602      7604      7553      7552      7602      7605
      7554      7552      7602      7603      7554      7552      7602      7604
      7554      7552      7602      7605      7555      7558      7561      7562
      7555      7558      7561      7563      7555      7558      7561      7564
      7556      7555      7558      7559      7556      7555      7558      7560
      7556      7555      7558      7561      7557      7555      7558      7559
      7557      7555      7558      7560      7557      7555      7558      7561
      7558      7561      7564      7565      7558      7561      7564      7566
      7558      7561      7564      7567      7559      7558      7561      7562
      7559      7558      7561      7563      7559      7558      7561      7564
      7560      7558      7561      7562      7560      7558      7561      7563
      7560      7558      7561      7564      7561      7564      7567      7568
      7561      7564      7567      7569      7561      7564      7567      7570
      7562      7561      7564      7565      7562      7561      7564      7566
      7562      7561      7564      7567      7563      7561      7564      7565
      7563      7561      7564      7566      7563      7561      7564      7567
      7564      7567      7570      7571      7564      7567      7570      7572
      7564      7567      7570      7573      7565      7564      7567      7568
      7565      7564      7567      7569      7565      7564      7567      7570
      7566      7564      7567      7568      7566      7564      7567      7569
      7566      7564      7567      7570      7567      7570      7573      7574
      7567      7570      7573      7575      7568      7567      7570      7571
      7568      7567      7570      7572      7568      7567      7570      7573
      7569      7567      7570      7571      7569      7567      7570      7572
      7569      7567      7570      7573      7570      7573      7575      7576
      7570      7573      7575      7577      7571      7570      7573      7574
      7571      7570      7573      7575      7572      7570      7573      7574
      7572      7570      7573      7575      7573      7575      7577      7578
      7573      7575      7577      7579      7573      7575      7577      7580
      7574      7573      7575      7576      7574      7573      7575      7577
      7575      7577      7580      7581      7575      7577      7580      7582
      7575      7577      7580      7583      7576      7575      7577      7578
      7576      7575      7577      7579      7576      7575      7577      7580
      7577      7580      7583      7584      7577      7580      7583      7585
      7577      7580      7583      7586      7578      7577      7580      7581
      7578      7577      7580      7582      7578      7577      7580      7583
      7579      7577      7580      7581      7579      7577      7580      7582
      7579      7577      7580      7583      7580      7583      7586      7587
      7580      7583      7586      7588      7580      7583      7586      7589
      7581      7580      7583      7584      7581      7580      7583      7585
      7581      7580      7583      7586      7582      7580      7583      7584
      7582      7580      7583      7585      7582      7580      7583      7586
      7583      7586      7589      7590      7583      7586      7589      7591
      7583      7586      7589      7592      7584      7583      7586      7587
      7584      7583      7586      7588      7584      7583      7586      7589
      7585      7583      7586      7587      7585      7583      7586      7588
      7585      7583      7586      7589      7586      7589      7592      7593
      7586      7589      7592      7594      7586      7589      7592      7595
      7587      7586      7589      7590      7587      7586      7589      7591
      7587      7586      7589      7592      7588      7586      7589      7590
      7588      7586      7589      7591      7588      7586      7589      7592
      7589      7592      7595      7596      7589      7592      7595      7597
      7589      7592      7595      7598      7590      7589      7592      7593
      7590      7589      7592      7594      7590      7589      7592      7595
      7591      7589      7592      7593      7591      7589      7592      7594
      7591      7589      7592      7595      7592      7595      7598      7599
      7592      7595      7598      7600      7592      7595      7598      7601
      7593      7592      7595      7596      7593      7592      7595      7597
      7593      7592      7595      7598      7594      7592      7595      7596
      7594      7592      7595      7597      7594      7592      7595      7598
      7596      7595      7598      7599      7596      7595      7598      7600
      7596      7595      7598      7601      7597      7595      7598      7599
      7597      7595      7598      7600      7597      7595      7598      7601
      7602      7605      7608      7609      7602      7605      7608      7610
      7602      7605      7608      7611      7603      7602      7605      7606
      7603      7602      7605      7607      7603      7602      7605      7608
      7604      7602      7605      7606      7604      7602      7605      7607
      7604      7602      7605      7608      7605      7608      7611      7612
      7605      7608      7611      7613      7605      7608      7611      7614
      7606      7605      7608      7609      7606      7605      7608      7610
      7606      7605      7608      7611      7607      7605      7608      7609
      7607      7605      7608      7610      7607      7605      7608      7611
      7608      7611      7614      7615      7608      7611      7614      7616
      7608      7611      7614      7617      7609      7608      7611      7612
      7609      7608      7611      7613      7609      7608      7611      7614
      7610      7608      7611      7612      7610      7608      7611      7613
      7610      7608      7611      7614      7611      7614      7617      7618
      7611      7614      7617      7619      7611      7614      7617      7620
      7612      7611      7614      7615      7612      7611      7614      7616
      7612      7611      7614      7617      7613      7611      7614      7615
      7613      7611      7614      7616      7613      7611      7614      7617
      7614      7617      7620      7621      7614      7617      7620      7622
      7614      7617      7620      7623      7615      7614      7617      7618
      7615      7614      7617      7619      7615      7614      7617      7620
      7616      7614      7617      7618      7616      7614      7617      7619
      7616      7614      7617      7620      7617      7620      7623      7624
      7617      7620      7623      7625      7617      7620      7623      7626
      7618      7617      7620      7621      7618      7617      7620      7622
      7618      7617      7620      7623      7619      7617      7620      7621
      7619      7617      7620      7622      7619      7617      7620      7623
      7620      7623      7626      7627      7620      7623      7626      7628
      7620      7623      7626      7629      7621      7620      7623      7624
      7621      7620      7623      7625      7621      7620      7623      7626
      7622      7620      7623      7624      7622      7620      7623      7625
      7622      7620      7623      7626      7623      7626      7629      7630
      7623      7626      7629      7631      7623      7626      7629      7632
      7624      7623      7626      7627      7624      7623      7626      7628
      7624      7623      7626      7629      7625      7623      7626      7627
      7625      7623      7626      7628      7625      7623      7626      7629
      7626      7629      7632      7633      7626      7629      7632      7634
      7626      7629      7632      7635      7627      7626      7629      7630
      7627      7626      7629      7631      7627      7626      7629      7632
      7628      7626      7629      7630      7628      7626      7629      7631
      7628      7626      7629      7632      7629      7632      7635      7636
      7629      7632      7635      7637      7629      7632      7635      7638
      7630      7629      7632      7633      7630      7629      7632      7634
      7630      7629      7632      7635      7631      7629      7632      7633
      7631      7629      7632      7634      7631      7629      7632      7635
      7632      7635      7638      7639      7632      7635      7638      7640
      7632      7635      7638      7641      7633      7632      7635      7636
      7633      7632      7635      7637      7633      7632      7635      7638
      7634      7632      7635      7636      7634      7632      7635      7637
      7634      7632      7635      7638      7635      7638      7641      7642
      7635      7638      7641      7643      7635      7638      7641      7644
      7636      7635      7638      7639      7636      7635      7638      7640
      7636      7635      7638      7641      7637      7635      7638      7639
      7637      7635      7638      7640      7637      7635      7638      7641
      7639      7638      7641      7642      7639      7638      7641      7643
      7639      7638      7641      7644      7640      7638      7641      7642
      7640      7638      7641      7643      7640      7638      7641      7644
      7645      7646      7661      7662      7645      7646      7661      7663
      7645      7646      7661      7667      7646      7645      7649      7650
      7646      7645      7649      7651      7646      7645      7649      7652
      7646      7645      7653      7654      7646      7645      7653      7655
      7646      7645      7653      7656      7646      7645      7657      7658
      7646      7645      7657      7659      7646      7645      7657      7660
      7646      7661      7667      7664      7647      7646      7645      7649
      7647      7646      7645      7653      7647      7646      7645      7657
      7647      7646      7661      7662      7647      7646      7661      7663
      7647      7646      7661      7667      7648      7646      7645      7649
      7648      7646      7645      7653      7648      7646      7645      7657
      7648      7646      7661      7662      7648      7646      7661      7663
      7648      7646      7661      7667      7649      7645      7646      7661
      7649      7645      7653      7654      7649      7645      7653      7655
      7649      7645      7653      7656      7649      7645      7657      7658
      7649      7645      7657      7659      7649      7645      7657      7660
      7650      7649      7645      7653      7650      7649      7645      7657
      7651      7649      7645      7653      7651      7649      7645      7657
      7652      7649      7645      7653      7652      7649      7645      7657
      7653      7645      7646      7661      7653      7645      7657      7658
      7653      7645      7657      7659      7653      7645      7657      7660
      7654      7653      7645      7657      7655      7653      7645      7657
      7656      7653      7645      7657      7657      7645      7646      7661
      7661      7667      7664      7665      7661      7667      7664      7666
      7661      7667      7664      7668      7662      7661      7667      7664
      7663      7661      7667      7664      7664      7668      7669      7670
      7664      7668      7669      7671      7664      7668      7669      7672
      7665      7664      7668      7669      7666      7664      7668      7669
      7667      7664      7668      7669      7668      7669      7672      7673
      7668      7669      7672      7674      7668      7669      7672      7680
      7669      7672      7674      7675      7669      7672      7680      7681
      7669      7672      7680      7682      7669      7672      7680      7683
      7670      7669      7672      7673      7670      7669      7672      7674
      7670      7669      7672      7680      7671      7669      7672      7673
      7671      7669      7672      7674      7671      7669      7672      7680
      7672      7674      7675      7676      7672      7674      7675      7677
      7672      7680      7683      7684      7673      7672      7674      7675
      7673      7672      7680      7681      7673      7672      7680      7682
      7673      7672      7680      7683      7674      7672      7680      7681
      7674      7672      7680      7682      7674      7672      7680      7683
      7674      7675      7677      7678      7674      7675      7677      7679
      7674      7675      7677      7689      7675      7674      7672      7680
      7675      7677      7689      7690      7675      7677      7689      7691
      7675      7677      7689      7692      7676      7675      7677      7678
      7676      7675      7677      7679      7676      7675      7677      7689
      7677      7689      7692      7693      7677      7689      7692      7694
      7677      7689      7692      7695      7678      7677      7689      7690
      7678      7677      7689      7691      7678      7677      7689      7692
      7679      7677      7689      7690      7679      7677      7689      7691
      7679      7677      7689      7692      7680      7683      7684      7685
      7680      7683      7684      7686      7681      7680      7683      7684
      7682      7680      7683      7684      7683      7684      7686      7687
      7683      7684      7686      7688      7683      7684      7686      7736
      7684      7686      7736      7737      7684      7686      7736      7738
      7684      7686      7736      7739      7685      7684      7686      7687
      7685      7684      7686      7688      7685      7684      7686      7736
      7686      7736      7739      7740      7686      7736      7739      7741
      7686      7736      7739      7742      7687      7686      7736      7737
      7687      7686      7736      7738      7687      7686      7736      7739
      7688      7686      7736      7737      7688      7686      7736      7738
      7688      7686      7736      7739      7689      7692      7695      7696
      7689      7692      7695      7697      7689      7692      7695      7698
      7690      7689      7692      7693      7690      7689      7692      7694
      7690      7689      7692      7695      7691      7689      7692      7693
      7691      7689      7692      7694      7691      7689      7692      7695
      7692      7695      7698      7699      7692      7695      7698      7700
      7692      7695      7698      7701      7693      7692      7695      7696
      7693      7692      7695      7697      7693      7692      7695      7698
      7694      7692      7695      7696      7694      7692      7695      7697
      7694      7692      7695      7698      7695      7698      7701      7702
      7695      7698      7701      7703      7695      7698      7701      7704
      7696      7695      7698      7699      7696      7695      7698      7700
      7696      7695      7698      7701      7697      7695      7698      7699
      7697      7695      7698      7700      7697      7695      7698      7701
      7698      7701      7704      7705      7698      7701      7704      7706
      7698      7701      7704      7707      7699      7698      7701      7702
      7699      7698      7701      7703      7699      7698      7701      7704
      7700      7698      7701      7702      7700      7698      7701      7703
      7700      7698      7701      7704      7701      7704      7707      7708
      7701      7704      7707      7709      7702      7701      7704      7705
      7702      7701      7704      7706      7702      7701      7704      7707
      7703      7701      7704      7705      7703      7701      7704      7706
      7703      7701      7704      7707      7704      7707      7709      7710
      7704      7707      7709      7711      7705      7704      7707      7708
      7705      7704      7707      7709      7706      7704      7707      7708
      7706      7704      7707      7709      7707      7709      7711      7712
      7707      7709      7711      7713      7707      7709      7711      7714
      7708      7707      7709      7710      7708      7707      7709      7711
      7709      7711      7714      7715      7709      7711      7714      7716
      7709      7711      7714      7717      7710      7709      7711      7712
      7710      7709      7711      7713      7710      7709      7711      7714
      7711      7714      7717      7718      7711      7714      7717      7719
      7711      7714      7717      7720      7712      7711      7714      7715
      7712      7711      7714      7716      7712      7711      7714      7717
      7713      7711      7714      7715      7713      7711      7714      7716
      7713      7711      7714      7717      7714      7717      7720      7721
      7714      7717      7720      7722      7714      7717      7720      7723
      7715      7714      7717      7718      7715      7714      7717      7719
      7715      7714      7717      7720      7716      7714      7717      7718
      7716      7714      7717      7719      7716      7714      7717      7720
      7717      7720      7723      7724      7717      7720      7723      7725
      7717      7720      7723      7726      7718      7717      7720      7721
      7718      7717      7720      7722      7718      7717      7720      7723
      7719      7717      7720      7721      7719      7717      7720      7722
      7719      7717      7720      7723      7720      7723      7726      7727
      7720      7723      7726      7728      7720      7723      7726      7729
      7721      7720      7723      7724      7721      7720      7723      7725
      7721      7720      7723      7726      7722      7720      7723      7724
      7722      7720      7723      7725      7722      7720      7723      7726
      7723      7726      7729      7730      7723      7726      7729      7731
      7723      7726      7729      7732      7724      7723      7726      7727
      7724      7723      7726      7728      7724      7723      7726      7729
      7725      7723      7726      7727      7725      7723      7726      7728
      7725      7723      7726      7729      7726      7729      7732      7733
      7726      7729      7732      7734      7726      7729      7732      7735
      7727      7726      7729      7730      7727      7726      7729      7731
      7727      7726      7729      7732      7728      7726      7729      7730
      7728      7726      7729      7731      7728      7726      7729      7732
      7730      7729      7732      7733      7730      7729      7732      7734
      7730      7729      7732      7735      7731      7729      7732      7733
      7731      7729      7732      7734      7731      7729      7732      7735
      7736      7739      7742      7743      7736      7739      7742      7744
      7736      7739      7742      7745      7737      7736      7739      7740
      7737      7736      7739      7741      7737      7736      7739      7742
      7738      7736      7739      7740      7738      7736      7739      7741
      7738      7736      7739      7742      7739      7742      7745      7746
      7739      7742      7745      7747      7739      7742      7745      7748
      7740      7739      7742      7743      7740      7739      7742      7744
      7740      7739      7742      7745      7741      7739      7742      7743
      7741      7739      7742      7744      7741      7739      7742      7745
      7742      7745      7748      7749      7742      7745      7748      7750
      7742      7745      7748      7751      7743      7742      7745      7746
      7743      7742      7745      7747      7743      7742      7745      7748
      7744      7742      7745      7746      7744      7742      7745      7747
      7744      7742      7745      7748      7745      7748      7751      7752
      7745      7748      7751      7753      7745      7748      7751      7754
      7746      7745      7748      7749      7746      7745      7748      7750
      7746      7745      7748      7751      7747      7745      7748      7749
      7747      7745      7748      7750      7747      7745      7748      7751
      7748      7751      7754      7755      7748      7751      7754      7756
      7748      7751      7754      7757      7749      7748      7751      7752
      7749      7748      7751      7753      7749      7748      7751      7754
      7750      7748      7751      7752      7750      7748      7751      7753
      7750      7748      7751      7754      7751      7754      7757      7758
      7751      7754      7757      7759      7751      7754      7757      7760
      7752      7751      7754      7755      7752      7751      7754      7756
      7752      7751      7754      7757      7753      7751      7754      7755
      7753      7751      7754      7756      7753      7751      7754      7757
      7754      7757      7760      7761      7754      7757      7760      7762
      7754      7757      7760      7763      7755      7754      7757      7758
      7755      7754      7757      7759      7755      7754      7757      7760
      7756      7754      7757      7758      7756      7754      7757      7759
      7756      7754      7757      7760      7757      7760      7763      7764
      7757      7760      7763      7765      7757      7760      7763      7766
      7758      7757      7760      7761      7758      7757      7760      7762
      7758      7757      7760      7763      7759      7757      7760      7761
      7759      7757      7760      7762      7759      7757      7760      7763
      7760      7763      7766      7767      7760      7763      7766      7768
      7760      7763      7766      7769      7761      7760      7763      7764
      7761      7760      7763      7765      7761      7760      7763      7766
      7762      7760      7763      7764      7762      7760      7763      7765
      7762      7760      7763      7766      7763      7766      7769      7770
      7763      7766      7769      7771      7763      7766      7769      7772
      7764      7763      7766      7767      7764      7763      7766      7768
      7764      7763      7766      7769      7765      7763      7766      7767
      7765      7763      7766      7768      7765      7763      7766      7769
      7766      7769      7772      7773      7766      7769      7772      7774
      7766      7769      7772      7775      7767      7766      7769      7770
      7767      7766      7769      7771      7767      7766      7769      7772
      7768      7766      7769      7770      7768      7766      7769      7771
      7768      7766      7769      7772      7769      7772      7775      7776
      7769      7772      7775      7777      7769      7772      7775      7778
      7770      7769      7772      7773      7770      7769      7772      7774
      7770      7769      7772      7775      7771      7769      7772      7773
      7771      7769      7772      7774      7771      7769      7772      7775
      7773      7772      7775      7776      7773      7772      7775      7777
      7773      7772      7775      7778      7774      7772      7775      7776
      7774      7772      7775      7777      7774      7772      7775      7778
      7779      7780      7795      7796      7779      7780      7795      7797
      7779      7780      7795      7801      7780      7779      7783      7784
      7780      7779      7783      7785      7780      7779      7783      7786
      7780      7779      7787      7788      7780      7779      7787      7789
      7780      7779      7787      7790      7780      7779      7791      7792
      7780      7779      7791      7793      7780      7779      7791      7794
      7780      7795      7801      7798      7781      7780      7779      7783
      7781      7780      7779      7787      7781      7780      7779      7791
      7781      7780      7795      7796      7781      7780      7795      7797
      7781      7780      7795      7801      7782      7780      7779      7783
      7782      7780      7779      7787      7782      7780      7779      7791
      7782      7780      7795      7796      7782      7780      7795      7797
      7782      7780      7795      7801      7783      7779      7780      7795
      7783      7779      7787      7788      7783      7779      7787      7789
      7783      7779      7787      7790      7783      7779      7791      7792
      7783      7779      7791      7793      7783      7779      7791      7794
      7784      7783      7779      7787      7784      7783      7779      7791
      7785      7783      7779      7787      7785      7783      7779      7791
      7786      7783      7779      7787      7786      7783      7779      7791
      7787      7779      7780      7795      7787      7779      7791      7792
      7787      7779      7791      7793      7787      7779      7791      7794
      7788      7787      7779      7791      7789      7787      7779      7791
      7790      7787      7779      7791      7791      7779      7780      7795
      7795      7801      7798      7799      7795      7801      7798      7800
      7795      7801      7798      7802      7796      7795      7801      7798
      7797      7795      7801      7798      7798      7802      7803      7804
      7798      7802      7803      7805      7798      7802      7803      7806
      7799      7798      7802      7803      7800      7798      7802      7803
      7801      7798      7802      7803      7802      7803      7806      7807
      7802      7803      7806      7808      7802      7803      7806      7814
      7803      7806      7808      7809      7803      7806      7814      7815
      7803      7806      7814      7816      7803      7806      7814      7817
      7804      7803      7806      7807      7804      7803      7806      7808
      7804      7803      7806      7814      7805      7803      7806      7807
      7805      7803      7806      7808      7805      7803      7806      7814
      7806      7808      7809      7810      7806      7808      7809      7811
      7806      7814      7817      7818      7807      7806      7808      7809
      7807      7806      7814      7815      7807      7806      7814      7816
      7807      7806      7814      7817      7808      7806      7814      7815
      7808      7806      7814      7816      7808      7806      7814      7817
      7808      7809      7811      7812      7808      7809      7811      7813
      7808      7809      7811      7823      7809      7808      7806      7814
      7809      7811      7823      7824      7809      7811      7823      7825
      7809      7811      7823      7826      7810      7809      7811      7812
      7810      7809      7811      7813      7810      7809      7811      7823
      7811      7823      7826      7827      7811      7823      7826      7828
      7811      7823      7826      7829      7812      7811      7823      7824
      7812      7811      7823      7825      7812      7811      7823      7826
      7813      7811      7823      7824      7813      7811      7823      7825
      7813      7811      7823      7826      7814      7817      7818      7819
      7814      7817      7818      7820      7815      7814      7817      7818
      7816      7814      7817      7818      7817      7818      7820      7821
      7817      7818      7820      7822      7817      7818      7820      7870
      7818      7820      7870      7871      7818      7820      7870      7872
      7818      7820      7870      7873      7819      7818      7820      7821
      7819      7818      7820      7822      7819      7818      7820      7870
      7820      7870      7873      7874      7820      7870      7873      7875
      7820      7870      7873      7876      7821      7820      7870      7871
      7821      7820      7870      7872      7821      7820      7870      7873
      7822      7820      7870      7871      7822      7820      7870      7872
      7822      7820      7870      7873      7823      7826      7829      7830
      7823      7826      7829      7831      7823      7826      7829      7832
      7824      7823      7826      7827      7824      7823      7826      7828
      7824      7823      7826      7829      7825      7823      7826      7827
      7825      7823      7826      7828      7825      7823      7826      7829
      7826      7829      7832      7833      7826      7829      7832      7834
      7826      7829      7832      7835      7827      7826      7829      7830
      7827      7826      7829      7831      7827      7826      7829      7832
      7828      7826      7829      7830      7828      7826      7829      7831
      7828      7826      7829      7832      7829      7832      7835      7836
      7829      7832      7835      7837      7829      7832      7835      7838
      7830      7829      7832      7833      7830      7829      7832      7834
      7830      7829      7832      7835      7831      7829      7832      7833
      7831      7829      7832      7834      7831      7829      7832      7835
      7832      7835      7838      7839      7832      7835      7838      7840
      7832      7835      7838      7841      7833      7832      7835      7836
      7833      7832      7835      7837      7833      7832      7835      7838
      7834      7832      7835      7836      7834      7832      7835      7837
      7834      7832      7835      7838      7835      7838      7841      7842
      7835      7838      7841      7843      7836      7835      7838      7839
      7836      7835      7838      7840      7836      7835      7838      7841
      7837      7835      7838      7839      7837      7835      7838      7840
      7837      7835      7838      7841      7838      7841      7843      7844
      7838      7841      7843      7845      7839      7838      7841      7842
      7839      7838      7841      7843      7840      7838      7841      7842
      7840      7838      7841      7843      7841      7843      7845      7846
      7841      7843      7845      7847      7841      7843      7845      7848
      7842      7841      7843      7844      7842      7841      7843      7845
      7843      7845      7848      7849      7843      7845      7848      7850
      7843      7845      7848      7851      7844      7843      7845      7846
      7844      7843      7845      7847      7844      7843      7845      7848
      7845      7848      7851      7852      7845      7848      7851      7853
      7845      7848      7851      7854      7846      7845      7848      7849
      7846      7845      7848      7850      7846      7845      7848      7851
      7847      7845      7848      7849      7847      7845      7848      7850
      7847      7845      7848      7851      7848      7851      7854      7855
      7848      7851      7854      7856      7848      7851      7854      7857
      7849      7848      7851      7852      7849      7848      7851      7853
      7849      7848      7851      7854      7850      7848      7851      7852
      7850      7848      7851      7853      7850      7848      7851      7854
      7851      7854      7857      7858      7851      7854      7857      7859
      7851      7854      7857      7860      7852      7851      7854      7855
      7852      7851      7854      7856      7852      7851      7854      7857
      7853      7851      7854      7855      7853      7851      7854      7856
      7853      7851      7854      7857      7854      7857      7860      7861
      7854      7857      7860      7862      7854      7857      7860      7863
      7855      7854      7857      7858      7855      7854      7857      7859
      7855      7854      7857      7860      7856      7854      7857      7858
      7856      7854      7857      7859      7856      7854      7857      7860
      7857      7860      7863      7864      7857      7860      7863      7865
      7857      7860      7863      7866      7858      7857      7860      7861
      7858      7857      7860      7862      7858      7857      7860      7863
      7859      7857      7860      7861      7859      7857      7860      7862
      7859      7857      7860      7863      7860      7863      7866      7867
      7860      7863      7866      7868      7860      7863      7866      7869
      7861      7860      7863      7864      7861      7860      7863      7865
      7861      7860      7863      7866      7862      7860      7863      7864
      7862      7860      7863      7865      7862      7860      7863      7866
      7864      7863      7866      7867      7864      7863      7866      7868
      7864      7863      7866      7869      7865      7863      7866      7867
      7865      7863      7866      7868      7865      7863      7866      7869
      7870      7873      7876      7877      7870      7873      7876      7878
      7870      7873      7876      7879      7871      7870      7873      7874
      7871      7870      7873      7875      7871      7870      7873      7876
      7872      7870      7873      7874      7872      7870      7873      7875
      7872      7870      7873      7876      7873      7876      7879      7880
      7873      7876      7879      7881      7873      7876      7879      7882
      7874      7873      7876      7877      7874      7873      7876      7878
      7874      7873      7876      7879      7875      7873      7876      7877
      7875      7873      7876      7878      7875      7873      7876      7879
      7876      7879      7882      7883      7876      7879      7882      7884
      7876      7879      7882      7885      7877      7876      7879      7880
      7877      7876      7879      7881      7877      7876      7879      7882
      7878      7876      7879      7880      7878      7876      7879      7881
      7878      7876      7879      7882      7879      7882      7885      7886
      7879      7882      7885      7887      7879      7882      7885      7888
      7880      7879      7882      7883      7880      7879      7882      7884
      7880      7879      7882      7885      7881      7879      7882      7883
      7881      7879      7882      7884      7881      7879      7882      7885
      7882      7885      7888      7889      7882      7885      7888      7890
      7882      7885      7888      7891      7883      7882      7885      7886
      7883      7882      7885      7887      7883      7882      7885      7888
      7884      7882      7885      7886      7884      7882      7885      7887
      7884      7882      7885      7888      7885      7888      7891      7892
      7885      7888      7891      7893      7885      7888      7891      7894
      7886      7885      7888      7889      7886      7885      7888      7890
      7886      7885      7888      7891      7887      7885      7888      7889
      7887      7885      7888      7890      7887      7885      7888      7891
      7888      7891      7894      7895      7888      7891      7894      7896
      7888      7891      7894      7897      7889      7888      7891      7892
      7889      7888      7891      7893      7889      7888      7891      7894
      7890      7888      7891      7892      7890      7888      7891      7893
      7890      7888      7891      7894      7891      7894      7897      7898
      7891      7894      7897      7899      7891      7894      7897      7900
      7892      7891      7894      7895      7892      7891      7894      7896
      7892      7891      7894      7897      7893      7891      7894      7895
      7893      7891      7894      7896      7893      7891      7894      7897
      7894      7897      7900      7901      7894      7897      7900      7902
      7894      7897      7900      7903      7895      7894      7897      7898
      7895      7894      7897      7899      7895      7894      7897      7900
      7896      7894      7897      7898      7896      7894      7897      7899
      7896      7894      7897      7900      7897      7900      7903      7904
      7897      7900      7903      7905      7897      7900      7903      7906
      7898      7897      7900      7901      7898      7897      7900      7902
      7898      7897      7900      7903      7899      7897      7900      7901
      7899      7897      7900      7902      7899      7897      7900      7903
      7900      7903      7906      7907      7900      7903      7906      7908
      7900      7903      7906      7909      7901      7900      7903      7904
      7901      7900      7903      7905      7901      7900      7903      7906
      7902      7900      7903      7904      7902      7900      7903      7905
      7902      7900      7903      7906      7903      7906      7909      7910
      7903      7906      7909      7911      7903      7906      7909      7912
      7904      7903      7906      7907      7904      7903      7906      7908
      7904      7903      7906      7909      7905      7903      7906      7907
      7905      7903      7906      7908      7905      7903      7906      7909
      7907      7906      7909      7910      7907      7906      7909      7911
      7907      7906      7909      7912      7908      7906      7909      7910
      7908      7906      7909      7911      7908      7906      7909      7912
      7913      7914      7929      7930      7913      7914      7929      7931
      7913      7914      7929      7935      7914      7913      7917      7918
      7914      7913      7917      7919      7914      7913      7917      7920
      7914      7913      7921      7922      7914      7913      7921      7923
      7914      7913      7921      7924      7914      7913      7925      7926
      7914      7913      7925      7927      7914      7913      7925      7928
      7914      7929      7935      7932      7915      7914      7913      7917
      7915      7914      7913      7921      7915      7914      7913      7925
      7915      7914      7929      7930      7915      7914      7929      7931
      7915      7914      7929      7935      7916      7914      7913      7917
      7916      7914      7913      7921      7916      7914      7913      7925
      7916      7914      7929      7930      7916      7914      7929      7931
      7916      7914      7929      7935      7917      7913      7914      7929
      7917      7913      7921      7922      7917      7913      7921      7923
      7917      7913      7921      7924      7917      7913      7925      7926
      7917      7913      7925      7927      7917      7913      7925      7928
      7918      7917      7913      7921      7918      7917      7913      7925
      7919      7917      7913      7921      7919      7917      7913      7925
      7920      7917      7913      7921      7920      7917      7913      7925
      7921      7913      7914      7929      7921      7913      7925      7926
      7921      7913      7925      7927      7921      7913      7925      7928
      7922      7921      7913      7925      7923      7921      7913      7925
      7924      7921      7913      7925      7925      7913      7914      7929
      7929      7935      7932      7933      7929      7935      7932      7934
      7929      7935      7932      7936      7930      7929      7935      7932
      7931      7929      7935      7932      7932      7936      7937      7938
      7932      7936      7937      7939      7932      7936      7937      7940
      7933      7932      7936      7937      7934      7932      7936      7937
      7935      7932      7936      7937      7936      7937      7940      7941
      7936      7937      7940      7942      7936      7937      7940      7948
      7937      7940      7942      7943      7937      7940      7948      7949
      7937      7940      7948      7950      7937      7940      7948      7951
      7938      7937      7940      7941      7938      7937      7940      7942
      7938      7937      7940      7948      7939      7937      7940      7941
      7939      7937      7940      7942      7939      7937      7940      7948
      7940      7942      7943      7944      7940      7942      7943      7945
      7940      7948      7951      7952      7941      7940      7942      7943
      7941      7940      7948      7949      7941      7940      7948      7950
      7941      7940      7948      7951      7942      7940      7948      7949
      7942      7940      7948      7950      7942      7940      7948      7951
      7942      7943      7945      7946      7942      7943      7945      7947
      7942      7943      7945      7957      7943      7942      7940      7948
      7943      7945      7957      7958      7943      7945      7957      7959
      7943      7945      7957      7960      7944      7943      7945      7946
      7944      7943      7945      7947      7944      7943      7945      7957
      7945      7957      7960      7961      7945      7957      7960      7962
      7945      7957      7960      7963      7946      7945      7957      7958
      7946      7945      7957      7959      7946      7945      7957      7960
      7947      7945      7957      7958      7947      7945      7957      7959
      7947      7945      7957      7960      7948      7951      7952      7953
      7948      7951      7952      7954      7949      7948      7951      7952
      7950      7948      7951      7952      7951      7952      7954      7955
      7951      7952      7954      7956      7951      7952      7954      8004
      7952      7954      8004      8005      7952      7954      8004      8006
      7952      7954      8004      8007      7953      7952      7954      7955
      7953      7952      7954      7956      7953      7952      7954      8004
      7954      8004      8007      8008      7954      8004      8007      8009
      7954      8004      8007      8010      7955      7954      8004      8005
      7955      7954      8004      8006      7955      7954      8004      8007
      7956      7954      8004      8005      7956      7954      8004      8006
      7956      7954      8004      8007      7957      7960      7963      7964
      7957      7960      7963      7965      7957      7960      7963      7966
      7958      7957      7960      7961      7958      7957      7960      7962
      7958      7957      7960      7963      7959      7957      7960      7961
      7959      7957      7960      7962      7959      7957      7960      7963
      7960      7963      7966      7967      7960      7963      7966      7968
      7960      7963      7966      7969      7961      7960      7963      7964
      7961      7960      7963      7965      7961      7960      7963      7966
      7962      7960      7963      7964      7962      7960      7963      7965
      7962      7960      7963      7966      7963      7966      7969      7970
      7963      7966      7969      7971      7963      7966      7969      7972
      7964      7963      7966      7967      7964      7963      7966      7968
      7964      7963      7966      7969      7965      7963      7966      7967
      7965      7963      7966      7968      7965      7963      7966      7969
      7966      7969      7972      7973      7966      7969      7972      7974
      7966      7969      7972      7975      7967      7966      7969      7970
      7967      7966      7969      7971      7967      7966      7969      7972
      7968      7966      7969      7970      7968      7966      7969      7971
      7968      7966      7969      7972      7969      7972      7975      7976
      7969      7972      7975      7977      7970      7969      7972      7973
      7970      7969      7972      7974      7970      7969      7972      7975
      7971      7969      7972      7973      7971      7969      7972      7974
      7971      7969      7972      7975      7972      7975      7977      7978
      7972      7975      7977      7979      7973      7972      7975      7976
      7973      7972      7975      7977      7974      7972      7975      7976
      7974      7972      7975      7977      7975      7977      7979      7980
      7975      7977      7979      7981      7975      7977      7979      7982
      7976      7975      7977      7978      7976      7975      7977      7979
      7977      7979      7982      7983      7977      7979      7982      7984
      7977      7979      7982      7985      7978      7977      7979      7980
      7978      7977      7979      7981      7978      7977      7979      7982
      7979      7982      7985      7986      7979      7982      7985      7987
      7979      7982      7985      7988      7980      7979      7982      7983
      7980      7979      7982      7984      7980      7979      7982      7985
      7981      7979      7982      7983      7981      7979      7982      7984
      7981      7979      7982      7985      7982      7985      7988      7989
      7982      7985      7988      7990      7982      7985      7988      7991
      7983      7982      7985      7986      7983      7982      7985      7987
      7983      7982      7985      7988      7984      7982      7985      7986
      7984      7982      7985      7987      7984      7982      7985      7988
      7985      7988      7991      7992      7985      7988      7991      7993
      7985      7988      7991      7994      7986      7985      7988      7989
      7986      7985      7988      7990      7986      7985      7988      7991
      7987      7985      7988      7989      7987      7985      7988      7990
      7987      7985      7988      7991      7988      7991      7994      7995
      7988      7991      7994      7996      7988      7991      7994      7997
      7989      7988      7991      7992      7989      7988      7991      7993
      7989      7988      7991      7994      7990      7988      7991      7992
      7990      7988      7991      7993      7990      7988      7991      7994
      7991      7994      7997      7998      7991      7994      7997      7999
      7991      7994      7997      8000      7992      7991      7994      7995
      7992      7991      7994      7996      7992      7991      7994      7997
      7993      7991      7994      7995      7993      7991      7994      7996
      7993      7991      7994      7997      7994      7997      8000      8001
      7994      7997      8000      8002      7994      7997      8000      8003
      7995      7994      7997      7998      7995      7994      7997      7999
      7995      7994      7997      8000      7996      7994      7997      7998
      7996      7994      7997      7999      7996      7994      7997      8000
      7998      7997      8000      8001      7998      7997      8000      8002
      7998      7997      8000      8003      7999      7997      8000      8001
      7999      7997      8000      8002      7999      7997      8000      8003
      8004      8007      8010      8011      8004      8007      8010      8012
      8004      8007      8010      8013      8005      8004      8007      8008
      8005      8004      8007      8009      8005      8004      8007      8010
      8006      8004      8007      8008      8006      8004      8007      8009
      8006      8004      8007      8010      8007      8010      8013      8014
      8007      8010      8013      8015      8007      8010      8013      8016
      8008      8007      8010      8011      8008      8007      8010      8012
      8008      8007      8010      8013      8009      8007      8010      8011
      8009      8007      8010      8012      8009      8007      8010      8013
      8010      8013      8016      8017      8010      8013      8016      8018
      8010      8013      8016      8019      8011      8010      8013      8014
      8011      8010      8013      8015      8011      8010      8013      8016
      8012      8010      8013      8014      8012      8010      8013      8015
      8012      8010      8013      8016      8013      8016      8019      8020
      8013      8016      8019      8021      8013      8016      8019      8022
      8014      8013      8016      8017      8014      8013      8016      8018
      8014      8013      8016      8019      8015      8013      8016      8017
      8015      8013      8016      8018      8015      8013      8016      8019
      8016      8019      8022      8023      8016      8019      8022      8024
      8016      8019      8022      8025      8017      8016      8019      8020
      8017      8016      8019      8021      8017      8016      8019      8022
      8018      8016      8019      8020      8018      8016      8019      8021
      8018      8016      8019      8022      8019      8022      8025      8026
      8019      8022      8025      8027      8019      8022      8025      8028
      8020      8019      8022      8023      8020      8019      8022      8024
      8020      8019      8022      8025      8021      8019      8022      8023
      8021      8019      8022      8024      8021      8019      8022      8025
      8022      8025      8028      8029      8022      8025      8028      8030
      8022      8025      8028      8031      8023      8022      8025      8026
      8023      8022      8025      8027      8023      8022      8025      8028
      8024      8022      8025      8026      8024      8022      8025      8027
      8024      8022      8025      8028      8025      8028      8031      8032
      8025      8028      8031      8033      8025      8028      8031      8034
      8026      8025      8028      8029      8026      8025      8028      8030
      8026      8025      8028      8031      8027      8025      8028      8029
      8027      8025      8028      8030      8027      8025      8028      8031
      8028      8031      8034      8035      8028      8031      8034      8036
      8028      8031      8034      8037      8029      8028      8031      8032
      8029      8028      8031      8033      8029      8028      8031      8034
      8030      8028      8031      8032      8030      8028      8031      8033
      8030      8028      8031      8034      8031      8034      8037      8038
      8031      8034      8037      8039      8031      8034      8037      8040
      8032      8031      8034      8035      8032      8031      8034      8036
      8032      8031      8034      8037      8033      8031      8034      8035
      8033      8031      8034      8036      8033      8031      8034      8037
      8034      8037      8040      8041      8034      8037      8040      8042
      8034      8037      8040      8043      8035      8034      8037      8038
      8035      8034      8037      8039      8035      8034      8037      8040
      8036      8034      8037      8038      8036      8034      8037      8039
      8036      8034      8037      8040      8037      8040      8043      8044
      8037      8040      8043      8045      8037      8040      8043      8046
      8038      8037      8040      8041      8038      8037      8040      8042
      8038      8037      8040      8043      8039      8037      8040      8041
      8039      8037      8040      8042      8039      8037      8040      8043
      8041      8040      8043      8044      8041      8040      8043      8045
      8041      8040      8043      8046      8042      8040      8043      8044
      8042      8040      8043      8045      8042      8040      8043      8046
      8047      8048      8063      8064      8047      8048      8063      8065
      8047      8048      8063      8069      8048      8047      8051      8052
      8048      8047      8051      8053      8048      8047      8051      8054
      8048      8047      8055      8056      8048      8047      8055      8057
      8048      8047      8055      8058      8048      8047      8059      8060
      8048      8047      8059      8061      8048      8047      8059      8062
      8048      8063      8069      8066      8049      8048      8047      8051
      8049      8048      8047      8055      8049      8048      8047      8059
      8049      8048      8063      8064      8049      8048      8063      8065
      8049      8048      8063      8069      8050      8048      8047      8051
      8050      8048      8047      8055      8050      8048      8047      8059
      8050      8048      8063      8064      8050      8048      8063      8065
      8050      8048      8063      8069      8051      8047      8048      8063
      8051      8047      8055      8056      8051      8047      8055      8057
      8051      8047      8055      8058      8051      8047      8059      8060
      8051      8047      8059      8061      8051      8047      8059      8062
      8052      8051      8047      8055      8052      8051      8047      8059
      8053      8051      8047      8055      8053      8051      8047      8059
      8054      8051      8047      8055      8054      8051      8047      8059
      8055      8047      8048      8063      8055      8047      8059      8060
      8055      8047      8059      8061      8055      8047      8059      8062
      8056      8055      8047      8059      8057      8055      8047      8059
      8058      8055      8047      8059      8059      8047      8048      8063
      8063      8069      8066      8067      8063      8069      8066      8068
      8063      8069      8066      8070      8064      8063      8069      8066
      8065      8063      8069      8066      8066      8070      8071      8072
      8066      8070      8071      8073      8066      8070      8071      8074
      8067      8066      8070      8071      8068      8066      8070      8071
      8069      8066      8070      8071      8070      8071      8074      8075
      8070      8071      8074      8076      8070      8071      8074      8082
      8071      8074      8076      8077      8071      8074      8082      8083
      8071      8074      8082      8084      8071      8074      8082      8085
      8072      8071      8074      8075      8072      8071      8074      8076
      8072      8071      8074      8082      8073      8071      8074      8075
      8073      8071      8074      8076      8073      8071      8074      8082
      8074      8076      8077      8078      8074      8076      8077      8079
      8074      8082      8085      8086      8075      8074      8076      8077
      8075      8074      8082      8083      8075      8074      8082      8084
      8075      8074      8082      8085      8076      8074      8082      8083
      8076      8074      8082      8084      8076      8074      8082      8085
      8076      8077      8079      8080      8076      8077      8079      8081
      8076      8077      8079      8091      8077      8076      8074      8082
      8077      8079      8091      8092      8077      8079      8091      8093
      8077      8079      8091      8094      8078      8077      8079      8080
      8078      8077      8079      8081      8078      8077      8079      8091
      8079      8091      8094      8095      8079      8091      8094      8096
      8079      8091      8094      8097      8080      8079      8091      8092
      8080      8079      8091      8093      8080      8079      8091      8094
      8081      8079      8091      8092      8081      8079      8091      8093
      8081      8079      8091      8094      8082      8085      8086      8087
      8082      8085      8086      8088      8083      8082      8085      8086
      8084      8082      8085      8086      8085      8086      8088      8089
      8085      8086      8088      8090      8085      8086      8088      8138
      8086      8088      8138      8139      8086      8088      8138      8140
      8086      8088      8138      8141      8087      8086      8088      8089
      8087      8086      8088      8090      8087      8086      8088      8138
      8088      8138      8141      8142      8088      8138      8141      8143
      8088      8138      8141      8144      8089      8088      8138      8139
      8089      8088      8138      8140      8089      8088      8138      8141
      8090      8088      8138      8139      8090      8088      8138      8140
      8090      8088      8138      8141      8091      8094      8097      8098
      8091      8094      8097      8099      8091      8094      8097      8100
      8092      8091      8094      8095      8092      8091      8094      8096
      8092      8091      8094      8097      8093      8091      8094      8095
      8093      8091      8094      8096      8093      8091      8094      8097
      8094      8097      8100      8101      8094      8097      8100      8102
      8094      8097      8100      8103      8095      8094      8097      8098
      8095      8094      8097      8099      8095      8094      8097      8100
      8096      8094      8097      8098      8096      8094      8097      8099
      8096      8094      8097      8100      8097      8100      8103      8104
      8097      8100      8103      8105      8097      8100      8103      8106
      8098      8097      8100      8101      8098      8097      8100      8102
      8098      8097      8100      8103      8099      8097      8100      8101
      8099      8097      8100      8102      8099      8097      8100      8103
      8100      8103      8106      8107      8100      8103      8106      8108
      8100      8103      8106      8109      8101      8100      8103      8104
      8101      8100      8103      8105      8101      8100      8103      8106
      8102      8100      8103      8104      8102      8100      8103      8105
      8102      8100      8103      8106      8103      8106      8109      8110
      8103      8106      8109      8111      8104      8103      8106      8107
      8104      8103      8106      8108      8104      8103      8106      8109
      8105      8103      8106      8107      8105      8103      8106      8108
      8105      8103      8106      8109      8106      8109      8111      8112
      8106      8109      8111      8113      8107      8106      8109      8110
      8107      8106      8109      8111      8108      8106      8109      8110
      8108      8106      8109      8111      8109      8111      8113      8114
      8109      8111      8113      8115      8109      8111      8113      8116
      8110      8109      8111      8112      8110      8109      8111      8113
      8111      8113      8116      8117      8111      8113      8116      8118
      8111      8113      8116      8119      8112      8111      8113      8114
      8112      8111      8113      8115      8112      8111      8113      8116
      8113      8116      8119      8120      8113      8116      8119      8121
      8113      8116      8119      8122      8114      8113      8116      8117
      8114      8113      8116      8118      8114      8113      8116      8119
      8115      8113      8116      8117      8115      8113      8116      8118
      8115      8113      8116      8119      8116      8119      8122      8123
      8116      8119      8122      8124      8116      8119      8122      8125
      8117      8116      8119      8120      8117      8116      8119      8121
      8117      8116      8119      8122      8118      8116      8119      8120
      8118      8116      8119      8121      8118      8116      8119      8122
      8119      8122      8125      8126      8119      8122      8125      8127
      8119      8122      8125      8128      8120      8119      8122      8123
      8120      8119      8122      8124      8120      8119      8122      8125
      8121      8119      8122      8123      8121      8119      8122      8124
      8121      8119      8122      8125      8122      8125      8128      8129
      8122      8125      8128      8130      8122      8125      8128      8131
      8123      8122      8125      8126      8123      8122      8125      8127
      8123      8122      8125      8128      8124      8122      8125      8126
      8124      8122      8125      8127      8124      8122      8125      8128
      8125      8128      8131      8132      8125      8128      8131      8133
      8125      8128      8131      8134      8126      8125      8128      8129
      8126      8125      8128      8130      8126      8125      8128      8131
      8127      8125      8128      8129      8127      8125      8128      8130
      8127      8125      8128      8131      8128      8131      8134      8135
      8128      8131      8134      8136      8128      8131      8134      8137
      8129      8128      8131      8132      8129      8128      8131      8133
      8129      8128      8131      8134      8130      8128      8131      8132
      8130      8128      8131      8133      8130      8128      8131      8134
      8132      8131      8134      8135      8132      8131      8134      8136
      8132      8131      8134      8137      8133      8131      8134      8135
      8133      8131      8134      8136      8133      8131      8134      8137
      8138      8141      8144      8145      8138      8141      8144      8146
      8138      8141      8144      8147      8139      8138      8141      8142
      8139      8138      8141      8143      8139      8138      8141      8144
      8140      8138      8141      8142      8140      8138      8141      8143
      8140      8138      8141      8144      8141      8144      8147      8148
      8141      8144      8147      8149      8141      8144      8147      8150
      8142      8141      8144      8145      8142      8141      8144      8146
      8142      8141      8144      8147      8143      8141      8144      8145
      8143      8141      8144      8146      8143      8141      8144      8147
      8144      8147      8150      8151      8144      8147      8150      8152
      8144      8147      8150      8153      8145      8144      8147      8148
      8145      8144      8147      8149      8145      8144      8147      8150
      8146      8144      8147      8148      8146      8144      8147      8149
      8146      8144      8147      8150      8147      8150      8153      8154
      8147      8150      8153      8155      8147      8150      8153      8156
      8148      8147      8150      8151      8148      8147      8150      8152
      8148      8147      8150      8153      8149      8147      8150      8151
      8149      8147      8150      8152      8149      8147      8150      8153
      8150      8153      8156      8157      8150      8153      8156      8158
      8150      8153      8156      8159      8151      8150      8153      8154
      8151      8150      8153      8155      8151      8150      8153      8156
      8152      8150      8153      8154      8152      8150      8153      8155
      8152      8150      8153      8156      8153      8156      8159      8160
      8153      8156      8159      8161      8153      8156      8159      8162
      8154      8153      8156      8157      8154      8153      8156      8158
      8154      8153      8156      8159      8155      8153      8156      8157
      8155      8153      8156      8158      8155      8153      8156      8159
      8156      8159      8162      8163      8156      8159      8162      8164
      8156      8159      8162      8165      8157      8156      8159      8160
      8157      8156      8159      8161      8157      8156      8159      8162
      8158      8156      8159      8160      8158      8156      8159      8161
      8158      8156      8159      8162      8159      8162      8165      8166
      8159      8162      8165      8167      8159      8162      8165      8168
      8160      8159      8162      8163      8160      8159      8162      8164
      8160      8159      8162      8165      8161      8159      8162      8163
      8161      8159      8162      8164      8161      8159      8162      8165
      8162      8165      8168      8169      8162      8165      8168      8170
      8162      8165      8168      8171      8163      8162      8165      8166
      8163      8162      8165      8167      8163      8162      8165      8168
      8164      8162      8165      8166      8164      8162      8165      8167
      8164      8162      8165      8168      8165      8168      8171      8172
      8165      8168      8171      8173      8165      8168      8171      8174
      8166      8165      8168      8169      8166      8165      8168      8170
      8166      8165      8168      8171      8167      8165      8168      8169
      8167      8165      8168      8170      8167      8165      8168      8171
      8168      8171      8174      8175      8168      8171      8174      8176
      8168      8171      8174      8177      8169      8168      8171      8172
      8169      8168      8171      8173      8169      8168      8171      8174
      8170      8168      8171      8172      8170      8168      8171      8173
      8170      8168      8171      8174      8171      8174      8177      8178
      8171      8174      8177      8179      8171      8174      8177      8180
      8172      8171      8174      8175      8172      8171      8174      8176
      8172      8171      8174      8177      8173      8171      8174      8175
      8173      8171      8174      8176      8173      8171      8174      8177
      8175      8174      8177      8178      8175      8174      8177      8179
      8175      8174      8177      8180      8176      8174      8177      8178
      8176      8174      8177      8179      8176      8174      8177      8180
      8181      8182      8197      8198      8181      8182      8197      8199
      8181      8182      8197      8203      8182      8181      8185      8186
      8182      8181      8185      8187      8182      8181      8185      8188
      8182      8181      8189      8190      8182      8181      8189      8191
      8182      8181      8189      8192      8182      8181      8193      8194
      8182      8181      8193      8195      8182      8181      8193      8196
      8182      8197      8203      8200      8183      8182      8181      8185
      8183      8182      8181      8189      8183      8182      8181      8193
      8183      8182      8197      8198      8183      8182      8197      8199
      8183      8182      8197      8203      8184      8182      8181      8185
      8184      8182      8181      8189      8184      8182      8181      8193
      8184      8182      8197      8198      8184      8182      8197      8199
      8184      8182      8197      8203      8185      8181      8182      8197
      8185      8181      8189      8190      8185      8181      8189      8191
      8185      8181      8189      8192      8185      8181      8193      8194
      8185      8181      8193      8195      8185      8181      8193      8196
      8186      8185      8181      8189      8186      8185      8181      8193
      8187      8185      8181      8189      8187      8185      8181      8193
      8188      8185      8181      8189      8188      8185      8181      8193
      8189      8181      8182      8197      8189      8181      8193      8194
      8189      8181      8193      8195      8189      8181      8193      8196
      8190      8189      8181      8193      8191      8189      8181      8193
      8192      8189      8181      8193      8193      8181      8182      8197
      8197      8203      8200      8201      8197      8203      8200      8202
      8197      8203      8200      8204      8198      8197      8203      8200
      8199      8197      8203      8200      8200      8204      8205      8206
      8200      8204      8205      8207      8200      8204      8205      8208
      8201      8200      8204      8205      8202      8200      8204      8205
      8203      8200      8204      8205      8204      8205      8208      8209
      8204      8205      8208      8210      8204      8205      8208      8216
      8205      8208      8210      8211      8205      8208      8216      8217
      8205      8208      8216      8218      8205      8208      8216      8219
      8206      8205      8208      8209      8206      8205      8208      8210
      8206      8205      8208      8216      8207      8205      8208      8209
      8207      8205      8208      8210      8207      8205      8208      8216
      8208      8210      8211      8212      8208      8210      8211      8213
      8208      8216      8219      8220      8209      8208      8210      8211
      8209      8208      8216      8217      8209      8208      8216      8218
      8209      8208      8216      8219      8210      8208      8216      8217
      8210      8208      8216      8218      8210      8208      8216      8219
      8210      8211      8213      8214      8210      8211      8213      8215
      8210      8211      8213      8225      8211      8210      8208      8216
      8211      8213      8225      8226      8211      8213      8225      8227
      8211      8213      8225      8228      8212      8211      8213      8214
      8212      8211      8213      8215      8212      8211      8213      8225
      8213      8225      8228      8229      8213      8225      8228      8230
      8213      8225      8228      8231      8214      8213      8225      8226
      8214      8213      8225      8227      8214      8213      8225      8228
      8215      8213      8225      8226      8215      8213      8225      8227
      8215      8213      8225      8228      8216      8219      8220      8221
      8216      8219      8220      8222      8217      8216      8219      8220
      8218      8216      8219      8220      8219      8220      8222      8223
      8219      8220      8222      8224      8219      8220      8222      8272
      8220      8222      8272      8273      8220      8222      8272      8274
      8220      8222      8272      8275      8221      8220      8222      8223
      8221      8220      8222      8224      8221      8220      8222      8272
      8222      8272      8275      8276      8222      8272      8275      8277
      8222      8272      8275      8278      8223      8222      8272      8273
      8223      8222      8272      8274      8223      8222      8272      8275
      8224      8222      8272      8273      8224      8222      8272      8274
      8224      8222      8272      8275      8225      8228      8231      8232
      8225      8228      8231      8233      8225      8228      8231      8234
      8226      8225      8228      8229      8226      8225      8228      8230
      8226      8225      8228      8231      8227      8225      8228      8229
      8227      8225      8228      8230      8227      8225      8228      8231
      8228      8231      8234      8235      8228      8231      8234      8236
      8228      8231      8234      8237      8229      8228      8231      8232
      8229      8228      8231      8233      8229      8228      8231      8234
      8230      8228      8231      8232      8230      8228      8231      8233
      8230      8228      8231      8234      8231      8234      8237      8238
      8231      8234      8237      8239      8231      8234      8237      8240
      8232      8231      8234      8235      8232      8231      8234      8236
      8232      8231      8234      8237      8233      8231      8234      8235
      8233      8231      8234      8236      8233      8231      8234      8237
      8234      8237      8240      8241      8234      8237      8240      8242
      8234      8237      8240      8243      8235      8234      8237      8238
      8235      8234      8237      8239      8235      8234      8237      8240
      8236      8234      8237      8238      8236      8234      8237      8239
      8236      8234      8237      8240      8237      8240      8243      8244
      8237      8240      8243      8245      8238      8237      8240      8241
      8238      8237      8240      8242      8238      8237      8240      8243
      8239      8237      8240      8241      8239      8237      8240      8242
      8239      8237      8240      8243      8240      8243      8245      8246
      8240      8243      8245      8247      8241      8240      8243      8244
      8241      8240      8243      8245      8242      8240      8243      8244
      8242      8240      8243      8245      8243      8245      8247      8248
      8243      8245      8247      8249      8243      8245      8247      8250
      8244      8243      8245      8246      8244      8243      8245      8247
      8245      8247      8250      8251      8245      8247      8250      8252
      8245      8247      8250      8253      8246      8245      8247      8248
      8246      8245      8247      8249      8246      8245      8247      8250
      8247      8250      8253      8254      8247      8250      8253      8255
      8247      8250      8253      8256      8248      8247      8250      8251
      8248      8247      8250      8252      8248      8247      8250      8253
      8249      8247      8250      8251      8249      8247      8250      8252
      8249      8247      8250      8253      8250      8253      8256      8257
      8250      8253      8256      8258      8250      8253      8256      8259
      8251      8250      8253      8254      8251      8250      8253      8255
      8251      8250      8253      8256      8252      8250      8253      8254
      8252      8250      8253      8255      8252      8250      8253      8256
      8253      8256      8259      8260      8253      8256      8259      8261
      8253      8256      8259      8262      8254      8253      8256      8257
      8254      8253      8256      8258      8254      8253      8256      8259
      8255      8253      8256      8257      8255      8253      8256      8258
      8255      8253      8256      8259      8256      8259      8262      8263
      8256      8259      8262      8264      8256      8259      8262      8265
      8257      8256      8259      8260      8257      8256      8259      8261
      8257      8256      8259      8262      8258      8256      8259      8260
      8258      8256      8259      8261      8258      8256      8259      8262
      8259      8262      8265      8266      8259      8262      8265      8267
      8259      8262      8265      8268      8260      8259      8262      8263
      8260      8259      8262      8264      8260      8259      8262      8265
      8261      8259      8262      8263      8261      8259      8262      8264
      8261      8259      8262      8265      8262      8265      8268      8269
      8262      8265      8268      8270      8262      8265      8268      8271
      8263      8262      8265      8266      8263      8262      8265      8267
      8263      8262      8265      8268      8264      8262      8265      8266
      8264      8262      8265      8267      8264      8262      8265      8268
      8266      8265      8268      8269      8266      8265      8268      8270
      8266      8265      8268      8271      8267      8265      8268      8269
      8267      8265      8268      8270      8267      8265      8268      8271
      8272      8275      8278      8279      8272      8275      8278      8280
      8272      8275      8278      8281      8273      8272      8275      8276
      8273      8272      8275      8277      8273      8272      8275      8278
      8274      8272      8275      8276      8274      8272      8275      8277
      8274      8272      8275      8278      8275      8278      8281      8282
      8275      8278      8281      8283      8275      8278      8281      8284
      8276      8275      8278      8279      8276      8275      8278      8280
      8276      8275      8278      8281      8277      8275      8278      8279
      8277      8275      8278      8280      8277      8275      8278      8281
      8278      8281      8284      8285      8278      8281      8284      8286
      8278      8281      8284      8287      8279      8278      8281      8282
      8279      8278      8281      8283      8279      8278      8281      8284
      8280      8278      8281      8282      8280      8278      8281      8283
      8280      8278      8281      8284      8281      8284      8287      8288
      8281      8284      8287      8289      8281      8284      8287      8290
      8282      8281      8284      8285      8282      8281      8284      8286
      8282      8281      8284      8287      8283      8281      8284      8285
      8283      8281      8284      8286      8283      8281      8284      8287
      8284      8287      8290      8291      8284      8287      8290      8292
      8284      8287      8290      8293      8285      8284      8287      8288
      8285      8284      8287      8289      8285      8284      8287      8290
      8286      8284      8287      8288      8286      8284      8287      8289
      8286      8284      8287      8290      8287      8290      8293      8294
      8287      8290      8293      8295      8287      8290      8293      8296
      8288      8287      8290      8291      8288      8287      8290      8292
      8288      8287      8290      8293      8289      8287      8290      8291
      8289      8287      8290      8292      8289      8287      8290      8293
      8290      8293      8296      8297      8290      8293      8296      8298
      8290      8293      8296      8299      8291      8290      8293      8294
      8291      8290      8293      8295      8291      8290      8293      8296
      8292      8290      8293      8294      8292      8290      8293      8295
      8292      8290      8293      8296      8293      8296      8299      8300
      8293      8296      8299      8301      8293      8296      8299      8302
      8294      8293      8296      8297      8294      8293      8296      8298
      8294      8293      8296      8299      8295      8293      8296      8297
      8295      8293      8296      8298      8295      8293      8296      8299
      8296      8299      8302      8303      8296      8299      8302      8304
      8296      8299      8302      8305      8297      8296      8299      8300
      8297      8296      8299      8301      8297      8296      8299      8302
      8298      8296      8299      8300      8298      8296      8299      8301
      8298      8296      8299      8302      8299      8302      8305      8306
      8299      8302      8305      8307      8299      8302      8305      8308
      8300      8299      8302      8303      8300      8299      8302      8304
      8300      8299      8302      8305      8301      8299      8302      8303
      8301      8299      8302      8304      8301      8299      8302      8305
      8302      8305      8308      8309      8302      8305      8308      8310
      8302      8305      8308      8311      8303      8302      8305      8306
      8303      8302      8305      8307      8303      8302      8305      8308
      8304      8302      8305      8306      8304      8302      8305      8307
      8304      8302      8305      8308      8305      8308      8311      8312
      8305      8308      8311      8313      8305      8308      8311      8314
      8306      8305      8308      8309      8306      8305      8308      8310
      8306      8305      8308      8311      8307      8305      8308      8309
      8307      8305      8308      8310      8307      8305      8308      8311
      8309      8308      8311      8312      8309      8308      8311      8313
      8309      8308      8311      8314      8310      8308      8311      8312
      8310      8308      8311      8313      8310      8308      8311      8314
      8315      8316      8331      8332      8315      8316      8331      8333
      8315      8316      8331      8337      8316      8315      8319      8320
      8316      8315      8319      8321      8316      8315      8319      8322
      8316      8315      8323      8324      8316      8315      8323      8325
      8316      8315      8323      8326      8316      8315      8327      8328
      8316      8315      8327      8329      8316      8315      8327      8330
      8316      8331      8337      8334      8317      8316      8315      8319
      8317      8316      8315      8323      8317      8316      8315      8327
      8317      8316      8331      8332      8317      8316      8331      8333
      8317      8316      8331      8337      8318      8316      8315      8319
      8318      8316      8315      8323      8318      8316      8315      8327
      8318      8316      8331      8332      8318      8316      8331      8333
      8318      8316      8331      8337      8319      8315      8316      8331
      8319      8315      8323      8324      8319      8315      8323      8325
      8319      8315      8323      8326      8319      8315      8327      8328
      8319      8315      8327      8329      8319      8315      8327      8330
      8320      8319      8315      8323      8320      8319      8315      8327
      8321      8319      8315      8323      8321      8319      8315      8327
      8322      8319      8315      8323      8322      8319      8315      8327
      8323      8315      8316      8331      8323      8315      8327      8328
      8323      8315      8327      8329      8323      8315      8327      8330
      8324      8323      8315      8327      8325      8323      8315      8327
      8326      8323      8315      8327      8327      8315      8316      8331
      8331      8337      8334      8335      8331      8337      8334      8336
      8331      8337      8334      8338      8332      8331      8337      8334
      8333      8331      8337      8334      8334      8338      8339      8340
      8334      8338      8339      8341      8334      8338      8339      8342
      8335      8334      8338      8339      8336      8334      8338      8339
      8337      8334      8338      8339      8338      8339      8342      8343
      8338      8339      8342      8344      8338      8339      8342      8350
      8339      8342      8344      8345      8339      8342      8350      8351
      8339      8342      8350      8352      8339      8342      8350      8353
      8340      8339      8342      8343      8340      8339      8342      8344
      8340      8339      8342      8350      8341      8339      8342      8343
      8341      8339      8342      8344      8341      8339      8342      8350
      8342      8344      8345      8346      8342      8344      8345      8347
      8342      8350      8353      8354      8343      8342      8344      8345
      8343      8342      8350      8351      8343      8342      8350      8352
      8343      8342      8350      8353      8344      8342      8350      8351
      8344      8342      8350      8352      8344      8342      8350      8353
      8344      8345      8347      8348      8344      8345      8347      8349
      8344      8345      8347      8359      8345      8344      8342      8350
      8345      8347      8359      8360      8345      8347      8359      8361
      8345      8347      8359      8362      8346      8345      8347      8348
      8346      8345      8347      8349      8346      8345      8347      8359
      8347      8359      8362      8363      8347      8359      8362      8364
      8347      8359      8362      8365      8348      8347      8359      8360
      8348      8347      8359      8361      8348      8347      8359      8362
      8349      8347      8359      8360      8349      8347      8359      8361
      8349      8347      8359      8362      8350      8353      8354      8355
      8350      8353      8354      8356      8351      8350      8353      8354
      8352      8350      8353      8354      8353      8354      8356      8357
      8353      8354      8356      8358      8353      8354      8356      8406
      8354      8356      8406      8407      8354      8356      8406      8408
      8354      8356      8406      8409      8355      8354      8356      8357
      8355      8354      8356      8358      8355      8354      8356      8406
      8356      8406      8409      8410      8356      8406      8409      8411
      8356      8406      8409      8412      8357      8356      8406      8407
      8357      8356      8406      8408      8357      8356      8406      8409
      8358      8356      8406      8407      8358      8356      8406      8408
      8358      8356      8406      8409      8359      8362      8365      8366
      8359      8362      8365      8367      8359      8362      8365      8368
      8360      8359      8362      8363      8360      8359      8362      8364
      8360      8359      8362      8365      8361      8359      8362      8363
      8361      8359      8362      8364      8361      8359      8362      8365
      8362      8365      8368      8369      8362      8365      8368      8370
      8362      8365      8368      8371      8363      8362      8365      8366
      8363      8362      8365      8367      8363      8362      8365      8368
      8364      8362      8365      8366      8364      8362      8365      8367
      8364      8362      8365      8368      8365      8368      8371      8372
      8365      8368      8371      8373      8365      8368      8371      8374
      8366      8365      8368      8369      8366      8365      8368      8370
      8366      8365      8368      8371      8367      8365      8368      8369
      8367      8365      8368      8370      8367      8365      8368      8371
      8368      8371      8374      8375      8368      8371      8374      8376
      8368      8371      8374      8377      8369      8368      8371      8372
      8369      8368      8371      8373      8369      8368      8371      8374
      8370      8368      8371      8372      8370      8368      8371      8373
      8370      8368      8371      8374      8371      8374      8377      8378
      8371      8374      8377      8379      8372      8371      8374      8375
      8372      8371      8374      8376      8372      8371      8374      8377
      8373      8371      8374      8375      8373      8371      8374      8376
      8373      8371      8374      8377      8374      8377      8379      8380
      8374      8377      8379      8381      8375      8374      8377      8378
      8375      8374      8377      8379      8376      8374      8377      8378
      8376      8374      8377      8379      8377      8379      8381      8382
      8377      8379      8381      8383      8377      8379      8381      8384
      8378      8377      8379      8380      8378      8377      8379      8381
      8379      8381      8384      8385      8379      8381      8384      8386
      8379      8381      8384      8387      8380      8379      8381      8382
      8380      8379      8381      8383      8380      8379      8381      8384
      8381      8384      8387      8388      8381      8384      8387      8389
      8381      8384      8387      8390      8382      8381      8384      8385
      8382      8381      8384      8386      8382      8381      8384      8387
      8383      8381      8384      8385      8383      8381      8384      8386
      8383      8381      8384      8387      8384      8387      8390      8391
      8384      8387      8390      8392      8384      8387      8390      8393
      8385      8384      8387      8388      8385      8384      8387      8389
      8385      8384      8387      8390      8386      8384      8387      8388
      8386      8384      8387      8389      8386      8384      8387      8390
      8387      8390      8393      8394      8387      8390      8393      8395
      8387      8390      8393      8396      8388      8387      8390      8391
      8388      8387      8390      8392      8388      8387      8390      8393
      8389      8387      8390      8391      8389      8387      8390      8392
      8389      8387      8390      8393      8390      8393      8396      8397
      8390      8393      8396      8398      8390      8393      8396      8399
      8391      8390      8393      8394      8391      8390      8393      8395
      8391      8390      8393      8396      8392      8390      8393      8394
      8392      8390      8393      8395      8392      8390      8393      8396
      8393      8396      8399      8400      8393      8396      8399      8401
      8393      8396      8399      8402      8394      8393      8396      8397
      8394      8393      8396      8398      8394      8393      8396      8399
      8395      8393      8396      8397      8395      8393      8396      8398
      8395      8393      8396      8399      8396      8399      8402      8403
      8396      8399      8402      8404      8396      8399      8402      8405
      8397      8396      8399      8400      8397      8396      8399      8401
      8397      8396      8399      8402      8398      8396      8399      8400
      8398      8396      8399      8401      8398      8396      8399      8402
      8400      8399      8402      8403      8400      8399      8402      8404
      8400      8399      8402      8405      8401      8399      8402      8403
      8401      8399      8402      8404      8401      8399      8402      8405
      8406      8409      8412      8413      8406      8409      8412      8414
      8406      8409      8412      8415      8407      8406      8409      8410
      8407      8406      8409      8411      8407      8406      8409      8412
      8408      8406      8409      8410      8408      8406      8409      8411
      8408      8406      8409      8412      8409      8412      8415      8416
      8409      8412      8415      8417      8409      8412      8415      8418
      8410      8409      8412      8413      8410      8409      8412      8414
      8410      8409      8412      8415      8411      8409      8412      8413
      8411      8409      8412      8414      8411      8409      8412      8415
      8412      8415      8418      8419      8412      8415      8418      8420
      8412      8415      8418      8421      8413      8412      8415      8416
      8413      8412      8415      8417      8413      8412      8415      8418
      8414      8412      8415      8416      8414      8412      8415      8417
      8414      8412      8415      8418      8415      8418      8421      8422
      8415      8418      8421      8423      8415      8418      8421      8424
      8416      8415      8418      8419      8416      8415      8418      8420
      8416      8415      8418      8421      8417      8415      8418      8419
      8417      8415      8418      8420      8417      8415      8418      8421
      8418      8421      8424      8425      8418      8421      8424      8426
      8418      8421      8424      8427      8419      8418      8421      8422
      8419      8418      8421      8423      8419      8418      8421      8424
      8420      8418      8421      8422      8420      8418      8421      8423
      8420      8418      8421      8424      8421      8424      8427      8428
      8421      8424      8427      8429      8421      8424      8427      8430
      8422      8421      8424      8425      8422      8421      8424      8426
      8422      8421      8424      8427      8423      8421      8424      8425
      8423      8421      8424      8426      8423      8421      8424      8427
      8424      8427      8430      8431      8424      8427      8430      8432
      8424      8427      8430      8433      8425      8424      8427      8428
      8425      8424      8427      8429      8425      8424      8427      8430
      8426      8424      8427      8428      8426      8424      8427      8429
      8426      8424      8427      8430      8427      8430      8433      8434
      8427      8430      8433      8435      8427      8430      8433      8436
      8428      8427      8430      8431      8428      8427      8430      8432
      8428      8427      8430      8433      8429      8427      8430      8431
      8429      8427      8430      8432      8429      8427      8430      8433
      8430      8433      8436      8437      8430      8433      8436      8438
      8430      8433      8436      8439      8431      8430      8433      8434
      8431      8430      8433      8435      8431      8430      8433      8436
      8432      8430      8433      8434      8432      8430      8433      8435
      8432      8430      8433      8436      8433      8436      8439      8440
      8433      8436      8439      8441      8433      8436      8439      8442
      8434      8433      8436      8437      8434      8433      8436      8438
      8434      8433      8436      8439      8435      8433      8436      8437
      8435      8433      8436      8438      8435      8433      8436      8439
      8436      8439      8442      8443      8436      8439      8442      8444
      8436      8439      8442      8445      8437      8436      8439      8440
      8437      8436      8439      8441      8437      8436      8439      8442
      8438      8436      8439      8440      8438      8436      8439      8441
      8438      8436      8439      8442      8439      8442      8445      8446
      8439      8442      8445      8447      8439      8442      8445      8448
      8440      8439      8442      8443      8440      8439      8442      8444
      8440      8439      8442      8445      8441      8439      8442      8443
      8441      8439      8442      8444      8441      8439      8442      8445
      8443      8442      8445      8446      8443      8442      8445      8447
      8443      8442      8445      8448      8444      8442      8445      8446
      8444      8442      8445      8447      8444      8442      8445      8448
      8449      8450      8465      8466      8449      8450      8465      8467
      8449      8450      8465      8471      8450      8449      8453      8454
      8450      8449      8453      8455      8450      8449      8453      8456
      8450      8449      8457      8458      8450      8449      8457      8459
      8450      8449      8457      8460      8450      8449      8461      8462
      8450      8449      8461      8463      8450      8449      8461      8464
      8450      8465      8471      8468      8451      8450      8449      8453
      8451      8450      8449      8457      8451      8450      8449      8461
      8451      8450      8465      8466      8451      8450      8465      8467
      8451      8450      8465      8471      8452      8450      8449      8453
      8452      8450      8449      8457      8452      8450      8449      8461
      8452      8450      8465      8466      8452      8450      8465      8467
      8452      8450      8465      8471      8453      8449      8450      8465
      8453      8449      8457      8458      8453      8449      8457      8459
      8453      8449      8457      8460      8453      8449      8461      8462
      8453      8449      8461      8463      8453      8449      8461      8464
      8454      8453      8449      8457      8454      8453      8449      8461
      8455      8453      8449      8457      8455      8453      8449      8461
      8456      8453      8449      8457      8456      8453      8449      8461
      8457      8449      8450      8465      8457      8449      8461      8462
      8457      8449      8461      8463      8457      8449      8461      8464
      8458      8457      8449      8461      8459      8457      8449      8461
      8460      8457      8449      8461      8461      8449      8450      8465
      8465      8471      8468      8469      8465      8471      8468      8470
      8465      8471      8468      8472      8466      8465      8471      8468
      8467      8465      8471      8468      8468      8472      8473      8474
      8468      8472      8473      8475      8468      8472      8473      8476
      8469      8468      8472      8473      8470      8468      8472      8473
      8471      8468      8472      8473      8472      8473      8476      8477
      8472      8473      8476      8478      8472      8473      8476      8484
      8473      8476      8478      8479      8473      8476      8484      8485
      8473      8476      8484      8486      8473      8476      8484      8487
      8474      8473      8476      8477      8474      8473      8476      8478
      8474      8473      8476      8484      8475      8473      8476      8477
      8475      8473      8476      8478      8475      8473      8476      8484
      8476      8478      8479      8480      8476      8478      8479      8481
      8476      8484      8487      8488      8477      8476      8478      8479
      8477      8476      8484      8485      8477      8476      8484      8486
      8477      8476      8484      8487      8478      8476      8484      8485
      8478      8476      8484      8486      8478      8476      8484      8487
      8478      8479      8481      8482      8478      8479      8481      8483
      8478      8479      8481      8493      8479      8478      8476      8484
      8479      8481      8493      8494      8479      8481      8493      8495
      8479      8481      8493      8496      8480      8479      8481      8482
      8480      8479      8481      8483      8480      8479      8481      8493
      8481      8493      8496      8497      8481      8493      8496      8498
      8481      8493      8496      8499      8482      8481      8493      8494
      8482      8481      8493      8495      8482      8481      8493      8496
      8483      8481      8493      8494      8483      8481      8493      8495
      8483      8481      8493      8496      8484      8487      8488      8489
      8484      8487      8488      8490      8485      8484      8487      8488
      8486      8484      8487      8488      8487      8488      8490      8491
      8487      8488      8490      8492      8487      8488      8490      8540
      8488      8490      8540      8541      8488      8490      8540      8542
      8488      8490      8540      8543      8489      8488      8490      8491
      8489      8488      8490      8492      8489      8488      8490      8540
      8490      8540      8543      8544      8490      8540      8543      8545
      8490      8540      8543      8546      8491      8490      8540      8541
      8491      8490      8540      8542      8491      8490      8540      8543
      8492      8490      8540      8541      8492      8490      8540      8542
      8492      8490      8540      8543      8493      8496      8499      8500
      8493      8496      8499      8501      8493      8496      8499      8502
      8494      8493      8496      8497      8494      8493      8496      8498
      8494      8493      8496      8499      8495      8493      8496      8497
      8495      8493      8496      8498      8495      8493      8496      8499
      8496      8499      8502      8503      8496      8499      8502      8504
      8496      8499      8502      8505      8497      8496      8499      8500
      8497      8496      8499      8501      8497      8496      8499      8502
      8498      8496      8499      8500      8498      8496      8499      8501
      8498      8496      8499      8502      8499      8502      8505      8506
      8499      8502      8505      8507      8499      8502      8505      8508
      8500      8499      8502      8503      8500      8499      8502      8504
      8500      8499      8502      8505      8501      8499      8502      8503
      8501      8499      8502      8504      8501      8499      8502      8505
      8502      8505      8508      8509      8502      8505      8508      8510
      8502      8505      8508      8511      8503      8502      8505      8506
      8503      8502      8505      8507      8503      8502      8505      8508
      8504      8502      8505      8506      8504      8502      8505      8507
      8504      8502      8505      8508      8505      8508      8511      8512
      8505      8508      8511      8513      8506      8505      8508      8509
      8506      8505      8508      8510      8506      8505      8508      8511
      8507      8505      8508      8509      8507      8505      8508      8510
      8507      8505      8508      8511      8508      8511      8513      8514
      8508      8511      8513      8515      8509      8508      8511      8512
      8509      8508      8511      8513      8510      8508      8511      8512
      8510      8508      8511      8513      8511      8513      8515      8516
      8511      8513      8515      8517      8511      8513      8515      8518
      8512      8511      8513      8514      8512      8511      8513      8515
      8513      8515      8518      8519      8513      8515      8518      8520
      8513      8515      8518      8521      8514      8513      8515      8516
      8514      8513      8515      8517      8514      8513      8515      8518
      8515      8518      8521      8522      8515      8518      8521      8523
      8515      8518      8521      8524      8516      8515      8518      8519
      8516      8515      8518      8520      8516      8515      8518      8521
      8517      8515      8518      8519      8517      8515      8518      8520
      8517      8515      8518      8521      8518      8521      8524      8525
      8518      8521      8524      8526      8518      8521      8524      8527
      8519      8518      8521      8522      8519      8518      8521      8523
      8519      8518      8521      8524      8520      8518      8521      8522
      8520      8518      8521      8523      8520      8518      8521      8524
      8521      8524      8527      8528      8521      8524      8527      8529
      8521      8524      8527      8530      8522      8521      8524      8525
      8522      8521      8524      8526      8522      8521      8524      8527
      8523      8521      8524      8525      8523      8521      8524      8526
      8523      8521      8524      8527      8524      8527      8530      8531
      8524      8527      8530      8532      8524      8527      8530      8533
      8525      8524      8527      8528      8525      8524      8527      8529
      8525      8524      8527      8530      8526      8524      8527      8528
      8526      8524      8527      8529      8526      8524      8527      8530
      8527      8530      8533      8534      8527      8530      8533      8535
      8527      8530      8533      8536      8528      8527      8530      8531
      8528      8527      8530      8532      8528      8527      8530      8533
      8529      8527      8530      8531      8529      8527      8530      8532
      8529      8527      8530      8533      8530      8533      8536      8537
      8530      8533      8536      8538      8530      8533      8536      8539
      8531      8530      8533      8534      8531      8530      8533      8535
      8531      8530      8533      8536      8532      8530      8533      8534
      8532      8530      8533      8535      8532      8530      8533      8536
      8534      8533      8536      8537      8534      8533      8536      8538
      8534      8533      8536      8539      8535      8533      8536      8537
      8535      8533      8536      8538      8535      8533      8536      8539
      8540      8543      8546      8547      8540      8543      8546      8548
      8540      8543      8546      8549      8541      8540      8543      8544
      8541      8540      8543      8545      8541      8540      8543      8546
      8542      8540      8543      8544      8542      8540      8543      8545
      8542      8540      8543      8546      8543      8546      8549      8550
      8543      8546      8549      8551      8543      8546      8549      8552
      8544      8543      8546      8547      8544      8543      8546      8548
      8544      8543      8546      8549      8545      8543      8546      8547
      8545      8543      8546      8548      8545      8543      8546      8549
      8546      8549      8552      8553      8546      8549      8552      8554
      8546      8549      8552      8555      8547      8546      8549      8550
      8547      8546      8549      8551      8547      8546      8549      8552
      8548      8546      8549      8550      8548      8546      8549      8551
      8548      8546      8549      8552      8549      8552      8555      8556
      8549      8552      8555      8557      8549      8552      8555      8558
      8550      8549      8552      8553      8550      8549      8552      8554
      8550      8549      8552      8555      8551      8549      8552      8553
      8551      8549      8552      8554      8551      8549      8552      8555
      8552      8555      8558      8559      8552      8555      8558      8560
      8552      8555      8558      8561      8553      8552      8555      8556
      8553      8552      8555      8557      8553      8552      8555      8558
      8554      8552      8555      8556      8554      8552      8555      8557
      8554      8552      8555      8558      8555      8558      8561      8562
      8555      8558      8561      8563      8555      8558      8561      8564
      8556      8555      8558      8559      8556      8555      8558      8560
      8556      8555      8558      8561      8557      8555      8558      8559
      8557      8555      8558      8560      8557      8555      8558      8561
      8558      8561      8564      8565      8558      8561      8564      8566
      8558      8561      8564      8567      8559      8558      8561      8562
      8559      8558      8561      8563      8559      8558      8561      8564
      8560      8558      8561      8562      8560      8558      8561      8563
      8560      8558      8561      8564      8561      8564      8567      8568
      8561      8564      8567      8569      8561      8564      8567      8570
      8562      8561      8564      8565      8562      8561      8564      8566
      8562      8561      8564      8567      8563      8561      8564      8565
      8563      8561      8564      8566      8563      8561      8564      8567
      8564      8567      8570      8571      8564      8567      8570      8572
      8564      8567      8570      8573      8565      8564      8567      8568
      8565      8564      8567      8569      8565      8564      8567      8570
      8566      8564      8567      8568      8566      8564      8567      8569
      8566      8564      8567      8570      8567      8570      8573      8574
      8567      8570      8573      8575      8567      8570      8573      8576
      8568      8567      8570      8571      8568      8567      8570      8572
      8568      8567      8570      8573      8569      8567      8570      8571
      8569      8567      8570      8572      8569      8567      8570      8573
      8570      8573      8576      8577      8570      8573      8576      8578
      8570      8573      8576      8579      8571      8570      8573      8574
      8571      8570      8573      8575      8571      8570      8573      8576
      8572      8570      8573      8574      8572      8570      8573      8575
      8572      8570      8573      8576      8573      8576      8579      8580
      8573      8576      8579      8581      8573      8576      8579      8582
      8574      8573      8576      8577      8574      8573      8576      8578
      8574      8573      8576      8579      8575      8573      8576      8577
      8575      8573      8576      8578      8575      8573      8576      8579
      8577      8576      8579      8580      8577      8576      8579      8581
      8577      8576      8579      8582      8578      8576      8579      8580
      8578      8576      8579      8581      8578      8576      8579      8582
      8583      8584      8599      8600      8583      8584      8599      8601
      8583      8584      8599      8605      8584      8583      8587      8588
      8584      8583      8587      8589      8584      8583      8587      8590
      8584      8583      8591      8592      8584      8583      8591      8593
      8584      8583      8591      8594      8584      8583      8595      8596
      8584      8583      8595      8597      8584      8583      8595      8598
      8584      8599      8605      8602      8585      8584      8583      8587
      8585      8584      8583      8591      8585      8584      8583      8595
      8585      8584      8599      8600      8585      8584      8599      8601
      8585      8584      8599      8605      8586      8584      8583      8587
      8586      8584      8583      8591      8586      8584      8583      8595
      8586      8584      8599      8600      8586      8584      8599      8601
      8586      8584      8599      8605      8587      8583      8584      8599
      8587      8583      8591      8592      8587      8583      8591      8593
      8587      8583      8591      8594      8587      8583      8595      8596
      8587      8583      8595      8597      8587      8583      8595      8598
      8588      8587      8583      8591      8588      8587      8583      8595
      8589      8587      8583      8591      8589      8587      8583      8595
      8590      8587      8583      8591      8590      8587      8583      8595
      8591      8583      8584      8599      8591      8583      8595      8596
      8591      8583      8595      8597      8591      8583      8595      8598
      8592      8591      8583      8595      8593      8591      8583      8595
      8594      8591      8583      8595      8595      8583      8584      8599
      8599      8605      8602      8603      8599      8605      8602      8604
      8599      8605      8602      8606      8600      8599      8605      8602
      8601      8599      8605      8602      8602      8606      8607      8608
      8602      8606      8607      8609      8602      8606      8607      8610
      8603      8602      8606      8607      8604      8602      8606      8607
      8605      8602      8606      8607      8606      8607      8610      8611
      8606      8607      8610      8612      8606      8607      8610      8618
      8607      8610      8612      8613      8607      8610      8618      8619
      8607      8610      8618      8620      8607      8610      8618      8621
      8608      8607      8610      8611      8608      8607      8610      8612
      8608      8607      8610      8618      8609      8607      8610      8611
      8609      8607      8610      8612      8609      8607      8610      8618
      8610      8612      8613      8614      8610      8612      8613      8615
      8610      8618      8621      8622      8611      8610      8612      8613
      8611      8610      8618      8619      8611      8610      8618      8620
      8611      8610      8618      8621      8612      8610      8618      8619
      8612      8610      8618      8620      8612      8610      8618      8621
      8612      8613      8615      8616      8612      8613      8615      8617
      8612      8613      8615      8627      8613      8612      8610      8618
      8613      8615      8627      8628      8613      8615      8627      8629
      8613      8615      8627      8630      8614      8613      8615      8616
      8614      8613      8615      8617      8614      8613      8615      8627
      8615      8627      8630      8631      8615      8627      8630      8632
      8615      8627      8630      8633      8616      8615      8627      8628
      8616      8615      8627      8629      8616      8615      8627      8630
      8617      8615      8627      8628      8617      8615      8627      8629
      8617      8615      8627      8630      8618      8621      8622      8623
      8618      8621      8622      8624      8619      8618      8621      8622
      8620      8618      8621      8622      8621      8622      8624      8625
      8621      8622      8624      8626      8621      8622      8624      8674
      8622      8624      8674      8675      8622      8624      8674      8676
      8622      8624      8674      8677      8623      8622      8624      8625
      8623      8622      8624      8626      8623      8622      8624      8674
      8624      8674      8677      8678      8624      8674      8677      8679
      8624      8674      8677      8680      8625      8624      8674      8675
      8625      8624      8674      8676      8625      8624      8674      8677
      8626      8624      8674      8675      8626      8624      8674      8676
      8626      8624      8674      8677      8627      8630      8633      8634
      8627      8630      8633      8635      8627      8630      8633      8636
      8628      8627      8630      8631      8628      8627      8630      8632
      8628      8627      8630      8633      8629      8627      8630      8631
      8629      8627      8630      8632      8629      8627      8630      8633
      8630      8633      8636      8637      8630      8633      8636      8638
      8630      8633      8636      8639      8631      8630      8633      8634
      8631      8630      8633      8635      8631      8630      8633      8636
      8632      8630      8633      8634      8632      8630      8633      8635
      8632      8630      8633      8636      8633      8636      8639      8640
      8633      8636      8639      8641      8633      8636      8639      8642
      8634      8633      8636      8637      8634      8633      8636      8638
      8634      8633      8636      8639      8635      8633      8636      8637
      8635      8633      8636      8638      8635      8633      8636      8639
      8636      8639      8642      8643      8636      8639      8642      8644
      8636      8639      8642      8645      8637      8636      8639      8640
      8637      8636      8639      8641      8637      8636      8639      8642
      8638      8636      8639      8640      8638      8636      8639      8641
      8638      8636      8639      8642      8639      8642      8645      8646
      8639      8642      8645      8647      8640      8639      8642      8643
      8640      8639      8642      8644      8640      8639      8642      8645
      8641      8639      8642      8643      8641      8639      8642      8644
      8641      8639      8642      8645      8642      8645      8647      8648
      8642      8645      8647      8649      8643      8642      8645      8646
      8643      8642      8645      8647      8644      8642      8645      8646
      8644      8642      8645      8647      8645      8647      8649      8650
      8645      8647      8649      8651      8645      8647      8649      8652
      8646      8645      8647      8648      8646      8645      8647      8649
      8647      8649      8652      8653      8647      8649      8652      8654
      8647      8649      8652      8655      8648      8647      8649      8650
      8648      8647      8649      8651      8648      8647      8649      8652
      8649      8652      8655      8656      8649      8652      8655      8657
      8649      8652      8655      8658      8650      8649      8652      8653
      8650      8649      8652      8654      8650      8649      8652      8655
      8651      8649      8652      8653      8651      8649      8652      8654
      8651      8649      8652      8655      8652      8655      8658      8659
      8652      8655      8658      8660      8652      8655      8658      8661
      8653      8652      8655      8656      8653      8652      8655      8657
      8653      8652      8655      8658      8654      8652      8655      8656
      8654      8652      8655      8657      8654      8652      8655      8658
      8655      8658      8661      8662      8655      8658      8661      8663
      8655      8658      8661      8664      8656      8655      8658      8659
      8656      8655      8658      8660      8656      8655      8658      8661
      8657      8655      8658      8659      8657      8655      8658      8660
      8657      8655      8658      8661      8658      8661      8664      8665
      8658      8661      8664      8666      8658      8661      8664      8667
      8659      8658      8661      8662      8659      8658      8661      8663
      8659      8658      8661      8664      8660      8658      8661      8662
      8660      8658      8661      8663      8660      8658      8661      8664
      8661      8664      8667      8668      8661      8664      8667      8669
      8661      8664      8667      8670      8662      8661      8664      8665
      8662      8661      8664      8666      8662      8661      8664      8667
      8663      8661      8664      8665      8663      8661      8664      8666
      8663      8661      8664      8667      8664      8667      8670      8671
      8664      8667      8670      8672      8664      8667      8670      8673
      8665      8664      8667      8668      8665      8664      8667      8669
      8665      8664      8667      8670      8666      8664      8667      8668
      8666      8664      8667      8669      8666      8664      8667      8670
      8668      8667      8670      8671      8668      8667      8670      8672
      8668      8667      8670      8673      8669      8667      8670      8671
      8669      8667      8670      8672      8669      8667      8670      8673
      8674      8677      8680      8681      8674      8677      8680      8682
      8674      8677      8680      8683      8675      8674      8677      8678
      8675      8674      8677      8679      8675      8674      8677      8680
      8676      8674      8677      8678      8676      8674      8677      8679
      8676      8674      8677      8680      8677      8680      8683      8684
      8677      8680      8683      8685      8677      8680      8683      8686
      8678      8677      8680      8681      8678      8677      8680      8682
      8678      8677      8680      8683      8679      8677      8680      8681
      8679      8677      8680      8682      8679      8677      8680      8683
      8680      8683      8686      8687      8680      8683      8686      8688
      8680      8683      8686      8689      8681      8680      8683      8684
      8681      8680      8683      8685      8681      8680      8683      8686
      8682      8680      8683      8684      8682      8680      8683      8685
      8682      8680      8683      8686      8683      8686      8689      8690
      8683      8686      8689      8691      8683      8686      8689      8692
      8684      8683      8686      8687      8684      8683      8686      8688
      8684      8683      8686      8689      8685      8683      8686      8687
      8685      8683      8686      8688      8685      8683      8686      8689
      8686      8689      8692      8693      8686      8689      8692      8694
      8686      8689      8692      8695      8687      8686      8689      8690
      8687      8686      8689      8691      8687      8686      8689      8692
      8688      8686      8689      8690      8688      8686      8689      8691
      8688      8686      8689      8692      8689      8692      8695      8696
      8689      8692      8695      8697      8689      8692      8695      8698
      8690      8689      8692      8693      8690      8689      8692      8694
      8690      8689      8692      8695      8691      8689      8692      8693
      8691      8689      8692      8694      8691      8689      8692      8695
      8692      8695      8698      8699      8692      8695      8698      8700
      8692      8695      8698      8701      8693      8692      8695      8696
      8693      8692      8695      8697      8693      8692      8695      8698
      8694      8692      8695      8696      8694      8692      8695      8697
      8694      8692      8695      8698      8695      8698      8701      8702
      8695      8698      8701      8703      8695      8698      8701      8704
      8696      8695      8698      8699      8696      8695      8698      8700
      8696      8695      8698      8701      8697      8695      8698      8699
      8697      8695      8698      8700      8697      8695      8698      8701
      8698      8701      8704      8705      8698      8701      8704      8706
      8698      8701      8704      8707      8699      8698      8701      8702
      8699      8698      8701      8703      8699      8698      8701      8704
      8700      8698      8701      8702      8700      8698      8701      8703
      8700      8698      8701      8704      8701      8704      8707      8708
      8701      8704      8707      8709      8701      8704      8707      8710
      8702      8701      8704      8705      8702      8701      8704      8706
      8702      8701      8704      8707      8703      8701      8704      8705
      8703      8701      8704      8706      8703      8701      8704      8707
      8704      8707      8710      8711      8704      8707      8710      8712
      8704      8707      8710      8713      8705      8704      8707      8708
      8705      8704      8707      8709      8705      8704      8707      8710
      8706      8704      8707      8708      8706      8704      8707      8709
      8706      8704      8707      8710      8707      8710      8713      8714
      8707      8710      8713      8715      8707      8710      8713      8716
      8708      8707      8710      8711      8708      8707      8710      8712
      8708      8707      8710      8713      8709      8707      8710      8711
      8709      8707      8710      8712      8709      8707      8710      8713
      8711      8710      8713      8714      8711      8710      8713      8715
      8711      8710      8713      8716      8712      8710      8713      8714
      8712      8710      8713      8715      8712      8710      8713      8716
      8717      8718      8733      8734      8717      8718      8733      8735
      8717      8718      8733      8739      8718      8717      8721      8722
      8718      8717      8721      8723      8718      8717      8721      8724
      8718      8717      8725      8726      8718      8717      8725      8727
      8718      8717      8725      8728      8718      8717      8729      8730
      8718      8717      8729      8731      8718      8717      8729      8732
      8718      8733      8739      8736      8719      8718      8717      8721
      8719      8718      8717      8725      8719      8718      8717      8729
      8719      8718      8733      8734      8719      8718      8733      8735
      8719      8718      8733      8739      8720      8718      8717      8721
      8720      8718      8717      8725      8720      8718      8717      8729
      8720      8718      8733      8734      8720      8718      8733      8735
      8720      8718      8733      8739      8721      8717      8718      8733
      8721      8717      8725      8726      8721      8717      8725      8727
      8721      8717      8725      8728      8721      8717      8729      8730
      8721      8717      8729      8731      8721      8717      8729      8732
      8722      8721      8717      8725      8722      8721      8717      8729
      8723      8721      8717      8725      8723      8721      8717      8729
      8724      8721      8717      8725      8724      8721      8717      8729
      8725      8717      8718      8733      8725      8717      8729      8730
      8725      8717      8729      8731      8725      8717      8729      8732
      8726      8725      8717      8729      8727      8725      8717      8729
      8728      8725      8717      8729      8729      8717      8718      8733
      8733      8739      8736      8737      8733      8739      8736      8738
      8733      8739      8736      8740      8734      8733      8739      8736
      8735      8733      8739      8736      8736      8740      8741      8742
      8736      8740      8741      8743      8736      8740      8741      8744
      8737      8736      8740      8741      8738      8736      8740      8741
      8739      8736      8740      8741      8740      8741      8744      8745
      8740      8741      8744      8746      8740      8741      8744      8752
      8741      8744      8746      8747      8741      8744      8752      8753
      8741      8744      8752      8754      8741      8744      8752      8755
      8742      8741      8744      8745      8742      8741      8744      8746
      8742      8741      8744      8752      8743      8741      8744      8745
      8743      8741      8744      8746      8743      8741      8744      8752
      8744      8746      8747      8748      8744      8746      8747      8749
      8744      8752      8755      8756      8745      8744      8746      8747
      8745      8744      8752      8753      8745      8744      8752      8754
      8745      8744      8752      8755      8746      8744      8752      8753
      8746      8744      8752      8754      8746      8744      8752      8755
      8746      8747      8749      8750      8746      8747      8749      8751
      8746      8747      8749      8761      8747      8746      8744      8752
      8747      8749      8761      8762      8747      8749      8761      8763
      8747      8749      8761      8764      8748      8747      8749      8750
      8748      8747      8749      8751      8748      8747      8749      8761
      8749      8761      8764      8765      8749      8761      8764      8766
      8749      8761      8764      8767      8750      8749      8761      8762
      8750      8749      8761      8763      8750      8749      8761      8764
      8751      8749      8761      8762      8751      8749      8761      8763
      8751      8749      8761      8764      8752      8755      8756      8757
      8752      8755      8756      8758      8753      8752      8755      8756
      8754      8752      8755      8756      8755      8756      8758      8759
      8755      8756      8758      8760      8755      8756      8758      8808
      8756      8758      8808      8809      8756      8758      8808      8810
      8756      8758      8808      8811      8757      8756      8758      8759
      8757      8756      8758      8760      8757      8756      8758      8808
      8758      8808      8811      8812      8758      8808      8811      8813
      8758      8808      8811      8814      8759      8758      8808      8809
      8759      8758      8808      8810      8759      8758      8808      8811
      8760      8758      8808      8809      8760      8758      8808      8810
      8760      8758      8808      8811      8761      8764      8767      8768
      8761      8764      8767      8769      8761      8764      8767      8770
      8762      8761      8764      8765      8762      8761      8764      8766
      8762      8761      8764      8767      8763      8761      8764      8765
      8763      8761      8764      8766      8763      8761      8764      8767
      8764      8767      8770      8771      8764      8767      8770      8772
      8764      8767      8770      8773      8765      8764      8767      8768
      8765      8764      8767      8769      8765      8764      8767      8770
      8766      8764      8767      8768      8766      8764      8767      8769
      8766      8764      8767      8770      8767      8770      8773      8774
      8767      8770      8773      8775      8767      8770      8773      8776
      8768      8767      8770      8771      8768      8767      8770      8772
      8768      8767      8770      8773      8769      8767      8770      8771
      8769      8767      8770      8772      8769      8767      8770      8773
      8770      8773      8776      8777      8770      8773      8776      8778
      8770      8773      8776      8779      8771      8770      8773      8774
      8771      8770      8773      8775      8771      8770      8773      8776
      8772      8770      8773      8774      8772      8770      8773      8775
      8772      8770      8773      8776      8773      8776      8779      8780
      8773      8776      8779      8781      8774      8773      8776      8777
      8774      8773      8776      8778      8774      8773      8776      8779
      8775      8773      8776      8777      8775      8773      8776      8778
      8775      8773      8776      8779      8776      8779      8781      8782
      8776      8779      8781      8783      8777      8776      8779      8780
      8777      8776      8779      8781      8778      8776      8779      8780
      8778      8776      8779      8781      8779      8781      8783      8784
      8779      8781      8783      8785      8779      8781      8783      8786
      8780      8779      8781      8782      8780      8779      8781      8783
      8781      8783      8786      8787      8781      8783      8786      8788
      8781      8783      8786      8789      8782      8781      8783      8784
      8782      8781      8783      8785      8782      8781      8783      8786
      8783      8786      8789      8790      8783      8786      8789      8791
      8783      8786      8789      8792      8784      8783      8786      8787
      8784      8783      8786      8788      8784      8783      8786      8789
      8785      8783      8786      8787      8785      8783      8786      8788
      8785      8783      8786      8789      8786      8789      8792      8793
      8786      8789      8792      8794      8786      8789      8792      8795
      8787      8786      8789      8790      8787      8786      8789      8791
      8787      8786      8789      8792      8788      8786      8789      8790
      8788      8786      8789      8791      8788      8786      8789      8792
      8789      8792      8795      8796      8789      8792      8795      8797
      8789      8792      8795      8798      8790      8789      8792      8793
      8790      8789      8792      8794      8790      8789      8792      8795
      8791      8789      8792      8793      8791      8789      8792      8794
      8791      8789      8792      8795      8792      8795      8798      8799
      8792      8795      8798      8800      8792      8795      8798      8801
      8793      8792      8795      8796      8793      8792      8795      8797
      8793      8792      8795      8798      8794      8792      8795      8796
      8794      8792      8795      8797      8794      8792      8795      8798
      8795      8798      8801      8802      8795      8798      8801      8803
      8795      8798      8801      8804      8796      8795      8798      8799
      8796      8795      8798      8800      8796      8795      8798      8801
      8797      8795      8798      8799      8797      8795      8798      8800
      8797      8795      8798      8801      8798      8801      8804      8805
      8798      8801      8804      8806      8798      8801      8804      8807
      8799      8798      8801      8802      8799      8798      8801      8803
      8799      8798      8801      8804      8800      8798      8801      8802
      8800      8798      8801      8803      8800      8798      8801      8804
      8802      8801      8804      8805      8802      8801      8804      8806
      8802      8801      8804      8807      8803      8801      8804      8805
      8803      8801      8804      8806      8803      8801      8804      8807
      8808      8811      8814      8815      8808      8811      8814      8816
      8808      8811      8814      8817      8809      8808      8811      8812
      8809      8808      8811      8813      8809      8808      8811      8814
      8810      8808      8811      8812      8810      8808      8811      8813
      8810      8808      8811      8814      8811      8814      8817      8818
      8811      8814      8817      8819      8811      8814      8817      8820
      8812      8811      8814      8815      8812      8811      8814      8816
      8812      8811      8814      8817      8813      8811      8814      8815
      8813      8811      8814      8816      8813      8811      8814      8817
      8814      8817      8820      8821      8814      8817      8820      8822
      8814      8817      8820      8823      8815      8814      8817      8818
      8815      8814      8817      8819      8815      8814      8817      8820
      8816      8814      8817      8818      8816      8814      8817      8819
      8816      8814      8817      8820      8817      8820      8823      8824
      8817      8820      8823      8825      8817      8820      8823      8826
      8818      8817      8820      8821      8818      8817      8820      8822
      8818      8817      8820      8823      8819      8817      8820      8821
      8819      8817      8820      8822      8819      8817      8820      8823
      8820      8823      8826      8827      8820      8823      8826      8828
      8820      8823      8826      8829      8821      8820      8823      8824
      8821      8820      8823      8825      8821      8820      8823      8826
      8822      8820      8823      8824      8822      8820      8823      8825
      8822      8820      8823      8826      8823      8826      8829      8830
      8823      8826      8829      8831      8823      8826      8829      8832
      8824      8823      8826      8827      8824      8823      8826      8828
      8824      8823      8826      8829      8825      8823      8826      8827
      8825      8823      8826      8828      8825      8823      8826      8829
      8826      8829      8832      8833      8826      8829      8832      8834
      8826      8829      8832      8835      8827      8826      8829      8830
      8827      8826      8829      8831      8827      8826      8829      8832
      8828      8826      8829      8830      8828      8826      8829      8831
      8828      8826      8829      8832      8829      8832      8835      8836
      8829      8832      8835      8837      8829      8832      8835      8838
      8830      8829      8832      8833      8830      8829      8832      8834
      8830      8829      8832      8835      8831      8829      8832      8833
      8831      8829      8832      8834      8831      8829      8832      8835
      8832      8835      8838      8839      8832      8835      8838      8840
      8832      8835      8838      8841      8833      8832      8835      8836
      8833      8832      8835      8837      8833      8832      8835      8838
      8834      8832      8835      8836      8834      8832      8835      8837
      8834      8832      8835      8838      8835      8838      8841      8842
      8835      8838      8841      8843      8835      8838      8841      8844
      8836      8835      8838      8839      8836      8835      8838      8840
      8836      8835      8838      8841      8837      8835      8838      8839
      8837      8835      8838      8840      8837      8835      8838      8841
      8838      8841      8844      8845      8838      8841      8844      8846
      8838      8841      8844      8847      8839      8838      8841      8842
      8839      8838      8841      8843      8839      8838      8841      8844
      8840      8838      8841      8842      8840      8838      8841      8843
      8840      8838      8841      8844      8841      8844      8847      8848
      8841      8844      8847      8849      8841      8844      8847      8850
      8842      8841      8844      8845      8842      8841      8844      8846
      8842      8841      8844      8847      8843      8841      8844      8845
      8843      8841      8844      8846      8843      8841      8844      8847
      8845      8844      8847      8848      8845      8844      8847      8849
      8845      8844      8847      8850      8846      8844      8847      8848
      8846      8844      8847      8849      8846      8844      8847      8850
      8851      8852      8867      8868      8851      8852      8867      8869
      8851      8852      8867      8873      8852      8851      8855      8856
      8852      8851      8855      8857      8852      8851      8855      8858
      8852      8851      8859      8860      8852      8851      8859      8861
      8852      8851      8859      8862      8852      8851      8863      8864
      8852      8851      8863      8865      8852      8851      8863      8866
      8852      8867      8873      8870      8853      8852      8851      8855
      8853      8852      8851      8859      8853      8852      8851      8863
      8853      8852      8867      8868      8853      8852      8867      8869
      8853      8852      8867      8873      8854      8852      8851      8855
      8854      8852      8851      8859      8854      8852      8851      8863
      8854      8852      8867      8868      8854      8852      8867      8869
      8854      8852      8867      8873      8855      8851      8852      8867
      8855      8851      8859      8860      8855      8851      8859      8861
      8855      8851      8859      8862      8855      8851      8863      8864
      8855      8851      8863      8865      8855      8851      8863      8866
      8856      8855      8851      8859      8856      8855      8851      8863
      8857      8855      8851      8859      8857      8855      8851      8863
      8858      8855      8851      8859      8858      8855      8851      8863
      8859      8851      8852      8867      8859      8851      8863      8864
      8859      8851      8863      8865      8859      8851      8863      8866
      8860      8859      8851      8863      8861      8859      8851      8863
      8862      8859      8851      8863      8863      8851      8852      8867
      8867      8873      8870      8871      8867      8873      8870      8872
      8867      8873      8870      8874      8868      8867      8873      8870
      8869      8867      8873      8870      8870      8874      8875      8876
      8870      8874      8875      8877      8870      8874      8875      8878
      8871      8870      8874      8875      8872      8870      8874      8875
      8873      8870      8874      8875      8874      8875      8878      8879
      8874      8875      8878      8880      8874      8875      8878      8886
      8875      8878      8880      8881      8875      8878      8886      8887
      8875      8878      8886      8888      8875      8878      8886      8889
      8876      8875      8878      8879      8876      8875      8878      8880
      8876      8875      8878      8886      8877      8875      8878      8879
      8877      8875      8878      8880      8877      8875      8878      8886
      8878      8880      8881      8882      8878      8880      8881      8883
      8878      8886      8889      8890      8879      8878      8880      8881
      8879      8878      8886      8887      8879      8878      8886      8888
      8879      8878      8886      8889      8880      8878      8886      8887
      8880      8878      8886      8888      8880      8878      8886      8889
      8880      8881      8883      8884      8880      8881      8883      8885
      8880      8881      8883      8895      8881      8880      8878      8886
      8881      8883      8895      8896      8881      8883      8895      8897
      8881      8883      8895      8898      8882      8881      8883      8884
      8882      8881      8883      8885      8882      8881      8883      8895
      8883      8895      8898      8899      8883      8895      8898      8900
      8883      8895      8898      8901      8884      8883      8895      8896
      8884      8883      8895      8897      8884      8883      8895      8898
      8885      8883      8895      8896      8885      8883      8895      8897
      8885      8883      8895      8898      8886      8889      8890      8891
      8886      8889      8890      8892      8887      8886      8889      8890
      8888      8886      8889      8890      8889      8890      8892      8893
      8889      8890      8892      8894      8889      8890      8892      8942
      8890      8892      8942      8943      8890      8892      8942      8944
      8890      8892      8942      8945      8891      8890      8892      8893
      8891      8890      8892      8894      8891      8890      8892      8942
      8892      8942      8945      8946      8892      8942      8945      8947
      8892      8942      8945      8948      8893      8892      8942      8943
      8893      8892      8942      8944      8893      8892      8942      8945
      8894      8892      8942      8943      8894      8892      8942      8944
      8894      8892      8942      8945      8895      8898      8901      8902
      8895      8898      8901      8903      8895      8898      8901      8904
      8896      8895      8898      8899      8896      8895      8898      8900
      8896      8895      8898      8901      8897      8895      8898      8899
      8897      8895      8898      8900      8897      8895      8898      8901
      8898      8901      8904      8905      8898      8901      8904      8906
      8898      8901      8904      8907      8899      8898      8901      8902
      8899      8898      8901      8903      8899      8898      8901      8904
      8900      8898      8901      8902      8900      8898      8901      8903
      8900      8898      8901      8904      8901      8904      8907      8908
      8901      8904      8907      8909      8901      8904      8907      8910
      8902      8901      8904      8905      8902      8901      8904      8906
      8902      8901      8904      8907      8903      8901      8904      8905
      8903      8901      8904      8906      8903      8901      8904      8907
      8904      8907      8910      8911      8904      8907      8910      8912
      8904      8907      8910      8913      8905      8904      8907      8908
      8905      8904      8907      8909      8905      8904      8907      8910
      8906      8904      8907      8908      8906      8904      8907      8909
      8906      8904      8907      8910      8907      8910      8913      8914
      8907      8910      8913      8915      8908      8907      8910      8911
      8908      8907      8910      8912      8908      8907      8910      8913
      8909      8907      8910      8911      8909      8907      8910      8912
      8909      8907      8910      8913      8910      8913      8915      8916
      8910      8913      8915      8917      8911      8910      8913      8914
      8911      8910      8913      8915      8912      8910      8913      8914
      8912      8910      8913      8915      8913      8915      8917      8918
      8913      8915      8917      8919      8913      8915      8917      8920
      8914      8913      8915      8916      8914      8913      8915      8917
      8915      8917      8920      8921      8915      8917      8920      8922
      8915      8917      8920      8923      8916      8915      8917      8918
      8916      8915      8917      8919      8916      8915      8917      8920
      8917      8920      8923      8924      8917      8920      8923      8925
      8917      8920      8923      8926      8918      8917      8920      8921
      8918      8917      8920      8922      8918      8917      8920      8923
      8919      8917      8920      8921      8919      8917      8920      8922
      8919      8917      8920      8923      8920      8923      8926      8927
      8920      8923      8926      8928      8920      8923      8926      8929
      8921      8920      8923      8924      8921      8920      8923      8925
      8921      8920      8923      8926      8922      8920      8923      8924
      8922      8920      8923      8925      8922      8920      8923      8926
      8923      8926      8929      8930      8923      8926      8929      8931
      8923      8926      8929      8932      8924      8923      8926      8927
      8924      8923      8926      8928      8924      8923      8926      8929
      8925      8923      8926      8927      8925      8923      8926      8928
      8925      8923      8926      8929      8926      8929      8932      8933
      8926      8929      8932      8934      8926      8929      8932      8935
      8927      8926      8929      8930      8927      8926      8929      8931
      8927      8926      8929      8932      8928      8926      8929      8930
      8928      8926      8929      8931      8928      8926      8929      8932
      8929      8932      8935      8936      8929      8932      8935      8937
      8929      8932      8935      8938      8930      8929      8932      8933
      8930      8929      8932      8934      8930      8929      8932      8935
      8931      8929      8932      8933      8931      8929      8932      8934
      8931      8929      8932      8935      8932      8935      8938      8939
      8932      8935      8938      8940      8932      8935      8938      8941
      8933      8932      8935      8936      8933      8932      8935      8937
      8933      8932      8935      8938      8934      8932      8935      8936
      8934      8932      8935      8937      8934      8932      8935      8938
      8936      8935      8938      8939      8936      8935      8938      8940
      8936      8935      8938      8941      8937      8935      8938      8939
      8937      8935      8938      8940      8937      8935      8938      8941
      8942      8945      8948      8949      8942      8945      8948      8950
      8942      8945      8948      8951      8943      8942      8945      8946
      8943      8942      8945      8947      8943      8942      8945      8948
      8944      8942      8945      8946      8944      8942      8945      8947
      8944      8942      8945      8948      8945      8948      8951      8952
      8945      8948      8951      8953      8945      8948      8951      8954
      8946      8945      8948      8949      8946      8945      8948      8950
      8946      8945      8948      8951      8947      8945      8948      8949
      8947      8945      8948      8950      8947      8945      8948      8951
      8948      8951      8954      8955      8948      8951      8954      8956
      8948      8951      8954      8957      8949      8948      8951      8952
      8949      8948      8951      8953      8949      8948      8951      8954
      8950      8948      8951      8952      8950      8948      8951      8953
      8950      8948      8951      8954      8951      8954      8957      8958
      8951      8954      8957      8959      8951      8954      8957      8960
      8952      8951      8954      8955      8952      8951      8954      8956
      8952      8951      8954      8957      8953      8951      8954      8955
      8953      8951      8954      8956      8953      8951      8954      8957
      8954      8957      8960      8961      8954      8957      8960      8962
      8954      8957      8960      8963      8955      8954      8957      8958
      8955      8954      8957      8959      8955      8954      8957      8960
      8956      8954      8957      8958      8956      8954      8957      8959
      8956      8954      8957      8960      8957      8960      8963      8964
      8957      8960      8963      8965      8957      8960      8963      8966
      8958      8957      8960      8961      8958      8957      8960      8962
      8958      8957      8960      8963      8959      8957      8960      8961
      8959      8957      8960      8962      8959      8957      8960      8963
      8960      8963      8966      8967      8960      8963      8966      8968
      8960      8963      8966      8969      8961      8960      8963      8964
      8961      8960      8963      8965      8961      8960      8963      8966
      8962      8960      8963      8964      8962      8960      8963      8965
      8962      8960      8963      8966      8963      8966      8969      8970
      8963      8966      8969      8971      8963      8966      8969      8972
      8964      8963      8966      8967      8964      8963      8966      8968
      8964      8963      8966      8969      8965      8963      8966      8967
      8965      8963      8966      8968      8965      8963      8966      8969
      8966      8969      8972      8973      8966      8969      8972      8974
      8966      8969      8972      8975      8967      8966      8969      8970
      8967      8966      8969      8971      8967      8966      8969      8972
      8968      8966      8969      8970      8968      8966      8969      8971
      8968      8966      8969      8972      8969      8972      8975      8976
      8969      8972      8975      8977      8969      8972      8975      8978
      8970      8969      8972      8973      8970      8969      8972      8974
      8970      8969      8972      8975      8971      8969      8972      8973
      8971      8969      8972      8974      8971      8969      8972      8975
      8972      8975      8978      8979      8972      8975      8978      8980
      8972      8975      8978      8981      8973      8972      8975      8976
      8973      8972      8975      8977      8973      8972      8975      8978
      8974      8972      8975      8976      8974      8972      8975      8977
      8974      8972      8975      8978      8975      8978      8981      8982
      8975      8978      8981      8983      8975      8978      8981      8984
      8976      8975      8978      8979      8976      8975      8978      8980
      8976      8975      8978      8981      8977      8975      8978      8979
      8977      8975      8978      8980      8977      8975      8978      8981
      8979      8978      8981      8982      8979      8978      8981      8983
      8979      8978      8981      8984      8980      8978      8981      8982
      8980      8978      8981      8983      8980      8978      8981      8984
      8985      8986      9001      9002      8985      8986      9001      9003
      8985      8986      9001      9007      8986      8985      8989      8990
      8986      8985      8989      8991      8986      8985      8989      8992
      8986      8985      8993      8994      8986      8985      8993      8995
      8986      8985      8993      8996      8986      8985      8997      8998
      8986      8985      8997      8999      8986      8985      8997      9000
      8986      9001      9007      9004      8987      8986      8985      8989
      8987      8986      8985      8993      8987      8986      8985      8997
      8987      8986      9001      9002      8987      8986      9001      9003
      8987      8986      9001      9007      8988      8986      8985      8989
      8988      8986      8985      8993      8988      8986      8985      8997
      8988      8986      9001      9002      8988      8986      9001      9003
      8988      8986      9001      9007      8989      8985      8986      9001
      8989      8985      8993      8994      8989      8985      8993      8995
      8989      8985      8993      8996      8989      8985      8997      8998
      8989      8985      8997      8999      8989      8985      8997      9000
      8990      8989      8985      8993      8990      8989      8985      8997
      8991      8989      8985      8993      8991      8989      8985      8997
      8992      8989      8985      8993      8992      8989      8985      8997
      8993      8985      8986      9001      8993      8985      8997      8998
      8993      8985      8997      8999      8993      8985      8997      9000
      8994      8993      8985      8997      8995      8993      8985      8997
      8996      8993      8985      8997      8997      8985      8986      9001
      9001      9007      9004      9005      9001      9007      9004      9006
      9001      9007      9004      9008      9002      9001      9007      9004
      9003      9001      9007      9004      9004      9008      9009      9010
      9004      9008      9009      9011      9004      9008      9009      9012
      9005      9004      9008      9009      9006      9004      9008      9009
      9007      9004      9008      9009      9008      9009      9012      9013
      9008      9009      9012      9014      9008      9009      9012      9020
      9009      9012      9014      9015      9009      9012      9020      9021
      9009      9012      9020      9022      9009      9012      9020      9023
      9010      9009      9012      9013      9010      9009      9012      9014
      9010      9009      9012      9020      9011      9009      9012      9013
      9011      9009      9012      9014      9011      9009      9012      9020
      9012      9014      9015      9016      9012      9014      9015      9017
      9012      9020      9023      9024      9013      9012      9014      9015
      9013      9012      9020      9021      9013      9012      9020      9022
      9013      9012      9020      9023      9014      9012      9020      9021
      9014      9012      9020      9022      9014      9012      9020      9023
      9014      9015      9017      9018      9014      9015      9017      9019
      9014      9015      9017      9029      9015      9014      9012      9020
      9015      9017      9029      9030      9015      9017      9029      9031
      9015      9017      9029      9032      9016      9015      9017      9018
      9016      9015      9017      9019      9016      9015      9017      9029
      9017      9029      9032      9033      9017      9029      9032      9034
      9017      9029      9032      9035      9018      9017      9029      9030
      9018      9017      9029      9031      9018      9017      9029      9032
      9019      9017      9029      9030      9019      9017      9029      9031
      9019      9017      9029      9032      9020      9023      9024      9025
      9020      9023      9024      9026      9021      9020      9023      9024
      9022      9020      9023      9024      9023      9024      9026      9027
      9023      9024      9026      9028      9023      9024      9026      9076
      9024      9026      9076      9077      9024      9026      9076      9078
      9024      9026      9076      9079      9025      9024      9026      9027
      9025      9024      9026      9028      9025      9024      9026      9076
      9026      9076      9079      9080      9026      9076      9079      9081
      9026      9076      9079      9082      9027      9026      9076      9077
      9027      9026      9076      9078      9027      9026      9076      9079
      9028      9026      9076      9077      9028      9026      9076      9078
      9028      9026      9076      9079      9029      9032      9035      9036
      9029      9032      9035      9037      9029      9032      9035      9038
      9030      9029      9032      9033      9030      9029      9032      9034
      9030      9029      9032      9035      9031      9029      9032      9033
      9031      9029      9032      9034      9031      9029      9032      9035
      9032      9035      9038      9039      9032      9035      9038      9040
      9032      9035      9038      9041      9033      9032      9035      9036
      9033      9032      9035      9037      9033      9032      9035      9038
      9034      9032      9035      9036      9034      9032      9035      9037
      9034      9032      9035      9038      9035      9038      9041      9042
      9035      9038      9041      9043      9035      9038      9041      9044
      9036      9035      9038      9039      9036      9035      9038      9040
      9036      9035      9038      9041      9037      9035      9038      9039
      9037      9035      9038      9040      9037      9035      9038      9041
      9038      9041      9044      9045      9038      9041      9044      9046
      9038      9041      9044      9047      9039      9038      9041      9042
      9039      9038      9041      9043      9039      9038      9041      9044
      9040      9038      9041      9042      9040      9038      9041      9043
      9040      9038      9041      9044      9041      9044      9047      9048
      9041      9044      9047      9049      9042      9041      9044      9045
      9042      9041      9044      9046      9042      9041      9044      9047
      9043      9041      9044      9045      9043      9041      9044      9046
      9043      9041      9044      9047      9044      9047      9049      9050
      9044      9047      9049      9051      9045      9044      9047      9048
      9045      9044      9047      9049      9046      9044      9047      9048
      9046      9044      9047      9049      9047      9049      9051      9052
      9047      9049      9051      9053      9047      9049      9051      9054
      9048      9047      9049      9050      9048      9047      9049      9051
      9049      9051      9054      9055      9049      9051      9054      9056
      9049      9051      9054      9057      9050      9049      9051      9052
      9050      9049      9051      9053      9050      9049      9051      9054
      9051      9054      9057      9058      9051      9054      9057      9059
      9051      9054      9057      9060      9052      9051      9054      9055
      9052      9051      9054      9056      9052      9051      9054      9057
      9053      9051      9054      9055      9053      9051      9054      9056
      9053      9051      9054      9057      9054      9057      9060      9061
      9054      9057      9060      9062      9054      9057      9060      9063
      9055      9054      9057      9058      9055      9054      9057      9059
      9055      9054      9057      9060      9056      9054      9057      9058
      9056      9054      9057      9059      9056      9054      9057      9060
      9057      9060      9063      9064      9057      9060      9063      9065
      9057      9060      9063      9066      9058      9057      9060      9061
      9058      9057      9060      9062      9058      9057      9060      9063
      9059      9057      9060      9061      9059      9057      9060      9062
      9059      9057      9060      9063      9060      9063      9066      9067
      9060      9063      9066      9068      9060      9063      9066      9069
      9061      9060      9063      9064      9061      9060      9063      9065
      9061      9060      9063      9066      9062      9060      9063      9064
      9062      9060      9063      9065      9062      9060      9063      9066
      9063      9066      9069      9070      9063      9066      9069      9071
      9063      9066      9069      9072      9064      9063      9066      9067
      9064      9063      9066      9068      9064      9063      9066      9069
      9065      9063      9066      9067      9065      9063      9066      9068
      9065      9063      9066      9069      9066      9069      9072      9073
      9066      9069      9072      9074      9066      9069      9072      9075
      9067      9066      9069      9070      9067      9066      9069      9071
      9067      9066      9069      9072      9068      9066      9069      9070
      9068      9066      9069      9071      9068      9066      9069      9072
      9070      9069      9072      9073      9070      9069      9072      9074
      9070      9069      9072      9075      9071      9069      9072      9073
      9071      9069      9072      9074      9071      9069      9072      9075
      9076      9079      9082      9083      9076      9079      9082      9084
      9076      9079      9082      9085      9077      9076      9079      9080
      9077      9076      9079      9081      9077      9076      9079      9082
      9078      9076      9079      9080      9078      9076      9079      9081
      9078      9076      9079      9082      9079      9082      9085      9086
      9079      9082      9085      9087      9079      9082      9085      9088
      9080      9079      9082      9083      9080      9079      9082      9084
      9080      9079      9082      9085      9081      9079      9082      9083
      9081      9079      9082      9084      9081      9079      9082      9085
      9082      9085      9088      9089      9082      9085      9088      9090
      9082      9085      9088      9091      9083      9082      9085      9086
      9083      9082      9085      9087      9083      9082      9085      9088
      9084      9082      9085      9086      9084      9082      9085      9087
      9084      9082      9085      9088      9085      9088      9091      9092
      9085      9088      9091      9093      9085      9088      9091      9094
      9086      9085      9088      9089      9086      9085      9088      9090
      9086      9085      9088      9091      9087      9085      9088      9089
      9087      9085      9088      9090      9087      9085      9088      9091
      9088      9091      9094      9095      9088      9091      9094      9096
      9088      9091      9094      9097      9089      9088      9091      9092
      9089      9088      9091      9093      9089      9088      9091      9094
      9090      9088      9091      9092      9090      9088      9091      9093
      9090      9088      9091      9094      9091      9094      9097      9098
      9091      9094      9097      9099      9091      9094      9097      9100
      9092      9091      9094      9095      9092      9091      9094      9096
      9092      9091      9094      9097      9093      9091      9094      9095
      9093      9091      9094      9096      9093      9091      9094      9097
      9094      9097      9100      9101      9094      9097      9100      9102
      9094      9097      9100      9103      9095      9094      9097      9098
      9095      9094      9097      9099      9095      9094      9097      9100
      9096      9094      9097      9098      9096      9094      9097      9099
      9096      9094      9097      9100      9097      9100      9103      9104
      9097      9100      9103      9105      9097      9100      9103      9106
      9098      9097      9100      9101      9098      9097      9100      9102
      9098      9097      9100      9103      9099      9097      9100      9101
      9099      9097      9100      9102      9099      9097      9100      9103
      9100      9103      9106      9107      9100      9103      9106      9108
      9100      9103      9106      9109      9101      9100      9103      9104
      9101      9100      9103      9105      9101      9100      9103      9106
      9102      9100      9103      9104      9102      9100      9103      9105
      9102      9100      9103      9106      9103      9106      9109      9110
      9103      9106      9109      9111      9103      9106      9109      9112
      9104      9103      9106      9107      9104      9103      9106      9108
      9104      9103      9106      9109      9105      9103      9106      9107
      9105      9103      9106      9108      9105      9103      9106      9109
      9106      9109      9112      9113      9106      9109      9112      9114
      9106      9109      9112      9115      9107      9106      9109      9110
      9107      9106      9109      9111      9107      9106      9109      9112
      9108      9106      9109      9110      9108      9106      9109      9111
      9108      9106      9109      9112      9109      9112      9115      9116
      9109      9112      9115      9117      9109      9112      9115      9118
      9110      9109      9112      9113      9110      9109      9112      9114
      9110      9109      9112      9115      9111      9109      9112      9113
      9111      9109      9112      9114      9111      9109      9112      9115
      9113      9112      9115      9116      9113      9112      9115      9117
      9113      9112      9115      9118      9114      9112      9115      9116
      9114      9112      9115      9117      9114      9112      9115      9118
      9119      9120      9135      9136      9119      9120      9135      9137
      9119      9120      9135      9141      9120      9119      9123      9124
      9120      9119      9123      9125      9120      9119      9123      9126
      9120      9119      9127      9128      9120      9119      9127      9129
      9120      9119      9127      9130      9120      9119      9131      9132
      9120      9119      9131      9133      9120      9119      9131      9134
      9120      9135      9141      9138      9121      9120      9119      9123
      9121      9120      9119      9127      9121      9120      9119      9131
      9121      9120      9135      9136      9121      9120      9135      9137
      9121      9120      9135      9141      9122      9120      9119      9123
      9122      9120      9119      9127      9122      9120      9119      9131
      9122      9120      9135      9136      9122      9120      9135      9137
      9122      9120      9135      9141      9123      9119      9120      9135
      9123      9119      9127      9128      9123      9119      9127      9129
      9123      9119      9127      9130      9123      9119      9131      9132
      9123      9119      9131      9133      9123      9119      9131      9134
      9124      9123      9119      9127      9124      9123      9119      9131
      9125      9123      9119      9127      9125      9123      9119      9131
      9126      9123      9119      9127      9126      9123      9119      9131
      9127      9119      9120      9135      9127      9119      9131      9132
      9127      9119      9131      9133      9127      9119      9131      9134
      9128      9127      9119      9131      9129      9127      9119      9131
      9130      9127      9119      9131      9131      9119      9120      9135
      9135      9141      9138      9139      9135      9141      9138      9140
      9135      9141      9138      9142      9136      9135      9141      9138
      9137      9135      9141      9138      9138      9142      9143      9144
      9138      9142      9143      9145      9138      9142      9143      9146
      9139      9138      9142      9143      9140      9138      9142      9143
      9141      9138      9142      9143      9142      9143      9146      9147
      9142      9143      9146      9148      9142      9143      9146      9154
      9143      9146      9148      9149      9143      9146      9154      9155
      9143      9146      9154      9156      9143      9146      9154      9157
      9144      9143      9146      9147      9144      9143      9146      9148
      9144      9143      9146      9154      9145      9143      9146      9147
      9145      9143      9146      9148      9145      9143      9146      9154
      9146      9148      9149      9150      9146      9148      9149      9151
      9146      9154      9157      9158      9147      9146      9148      9149
      9147      9146      9154      9155      9147      9146      9154      9156
      9147      9146      9154      9157      9148      9146      9154      9155
      9148      9146      9154      9156      9148      9146      9154      9157
      9148      9149      9151      9152      9148      9149      9151      9153
      9148      9149      9151      9163      9149      9148      9146      9154
      9149      9151      9163      9164      9149      9151      9163      9165
      9149      9151      9163      9166      9150      9149      9151      9152
      9150      9149      9151      9153      9150      9149      9151      9163
      9151      9163      9166      9167      9151      9163      9166      9168
      9151      9163      9166      9169      9152      9151      9163      9164
      9152      9151      9163      9165      9152      9151      9163      9166
      9153      9151      9163      9164      9153      9151      9163      9165
      9153      9151      9163      9166      9154      9157      9158      9159
      9154      9157      9158      9160      9155      9154      9157      9158
      9156      9154      9157      9158      9157      9158      9160      9161
      9157      9158      9160      9162      9157      9158      9160      9210
      9158      9160      9210      9211      9158      9160      9210      9212
      9158      9160      9210      9213      9159      9158      9160      9161
      9159      9158      9160      9162      9159      9158      9160      9210
      9160      9210      9213      9214      9160      9210      9213      9215
      9160      9210      9213      9216      9161      9160      9210      9211
      9161      9160      9210      9212      9161      9160      9210      9213
      9162      9160      9210      9211      9162      9160      9210      9212
      9162      9160      9210      9213      9163      9166      9169      9170
      9163      9166      9169      9171      9163      9166      9169      9172
      9164      9163      9166      9167      9164      9163      9166      9168
      9164      9163      9166      9169      9165      9163      9166      9167
      9165      9163      9166      9168      9165      9163      9166      9169
      9166      9169      9172      9173      9166      9169      9172      9174
      9166      9169      9172      9175      9167      9166      9169      9170
      9167      9166      9169      9171      9167      9166      9169      9172
      9168      9166      9169      9170      9168      9166      9169      9171
      9168      9166      9169      9172      9169      9172      9175      9176
      9169      9172      9175      9177      9169      9172      9175      9178
      9170      9169      9172      9173      9170      9169      9172      9174
      9170      9169      9172      9175      9171      9169      9172      9173
      9171      9169      9172      9174      9171      9169      9172      9175
      9172      9175      9178      9179      9172      9175      9178      9180
      9172      9175      9178      9181      9173      9172      9175      9176
      9173      9172      9175      9177      9173      9172      9175      9178
      9174      9172      9175      9176      9174      9172      9175      9177
      9174      9172      9175      9178      9175      9178      9181      9182
      9175      9178      9181      9183      9176      9175      9178      9179
      9176      9175      9178      9180      9176      9175      9178      9181
      9177      9175      9178      9179      9177      9175      9178      9180
      9177      9175      9178      9181      9178      9181      9183      9184
      9178      9181      9183      9185      9179      9178      9181      9182
      9179      9178      9181      9183      9180      9178      9181      9182
      9180      9178      9181      9183      9181      9183      9185      9186
      9181      9183      9185      9187      9181      9183      9185      9188
      9182      9181      9183      9184      9182      9181      9183      9185
      9183      9185      9188      9189      9183      9185      9188      9190
      9183      9185      9188      9191      9184      9183      9185      9186
      9184      9183      9185      9187      9184      9183      9185      9188
      9185      9188      9191      9192      9185      9188      9191      9193
      9185      9188      9191      9194      9186      9185      9188      9189
      9186      9185      9188      9190      9186      9185      9188      9191
      9187      9185      9188      9189      9187      9185      9188      9190
      9187      9185      9188      9191      9188      9191      9194      9195
      9188      9191      9194      9196      9188      9191      9194      9197
      9189      9188      9191      9192      9189      9188      9191      9193
      9189      9188      9191      9194      9190      9188      9191      9192
      9190      9188      9191      9193      9190      9188      9191      9194
      9191      9194      9197      9198      9191      9194      9197      9199
      9191      9194      9197      9200      9192      9191      9194      9195
      9192      9191      9194      9196      9192      9191      9194      9197
      9193      9191      9194      9195      9193      9191      9194      9196
      9193      9191      9194      9197      9194      9197      9200      9201
      9194      9197      9200      9202      9194      9197      9200      9203
      9195      9194      9197      9198      9195      9194      9197      9199
      9195      9194      9197      9200      9196      9194      9197      9198
      9196      9194      9197      9199      9196      9194      9197      9200
      9197      9200      9203      9204      9197      9200      9203      9205
      9197      9200      9203      9206      9198      9197      9200      9201
      9198      9197      9200      9202      9198      9197      9200      9203
      9199      9197      9200      9201      9199      9197      9200      9202
      9199      9197      9200      9203      9200      9203      9206      9207
      9200      9203      9206      9208      9200      9203      9206      9209
      9201      9200      9203      9204      9201      9200      9203      9205
      9201      9200      9203      9206      9202      9200      9203      9204
      9202      9200      9203      9205      9202      9200      9203      9206
      9204      9203      9206      9207      9204      9203      9206      9208
      9204      9203      9206      9209      9205      9203      9206      9207
      9205      9203      9206      9208      9205      9203      9206      9209
      9210      9213      9216      9217      9210      9213      9216      9218
      9210      9213      9216      9219      9211      9210      9213      9214
      9211      9210      9213      9215      9211      9210      9213      9216
      9212      9210      9213      9214      9212      9210      9213      9215
      9212      9210      9213      9216      9213      9216      9219      9220
      9213      9216      9219      9221      9213      9216      9219      9222
      9214      9213      9216      9217      9214      9213      9216      9218
      9214      9213      9216      9219      9215      9213      9216      9217
      9215      9213      9216      9218      9215      9213      9216      9219
      9216      9219      9222      9223      9216      9219      9222      9224
      9216      9219      9222      9225      9217      9216      9219      9220
      9217      9216      9219      9221      9217      9216      9219      9222
      9218      9216      9219      9220      9218      9216      9219      9221
      9218      9216      9219      9222      9219      9222      9225      9226
      9219      9222      9225      9227      9219      9222      9225      9228
      9220      9219      9222      9223      9220      9219      9222      9224
      9220      9219      9222      9225      9221      9219      9222      9223
      9221      9219      9222      9224      9221      9219      9222      9225
      9222      9225      9228      9229      9222      9225      9228      9230
      9222      9225      9228      9231      9223      9222      9225      9226
      9223      9222      9225      9227      9223      9222      9225      9228
      9224      9222      9225      9226      9224      9222      9225      9227
      9224      9222      9225      9228      9225      9228      9231      9232
      9225      9228      9231      9233      9225      9228      9231      9234
      9226      9225      9228      9229      9226      9225      9228      9230
      9226      9225      9228      9231      9227      9225      9228      9229
      9227      9225      9228      9230      9227      9225      9228      9231
      9228      9231      9234      9235      9228      9231      9234      9236
      9228      9231      9234      9237      9229      9228      9231      9232
      9229      9228      9231      9233      9229      9228      9231      9234
      9230      9228      9231      9232      9230      9228      9231      9233
      9230      9228      9231      9234      9231      9234      9237      9238
      9231      9234      9237      9239      9231      9234      9237      9240
      9232      9231      9234      9235      9232      9231      9234      9236
      9232      9231      9234      9237      9233      9231      9234      9235
      9233      9231      9234      9236      9233      9231      9234      9237
      9234      9237      9240      9241      9234      9237      9240      9242
      9234      9237      9240      9243      9235      9234      9237      9238
      9235      9234      9237      9239      9235      9234      9237      9240
      9236      9234      9237      9238      9236      9234      9237      9239
      9236      9234      9237      9240      9237      9240      9243      9244
      9237      9240      9243      9245      9237      9240      9243      9246
      9238      9237      9240      9241      9238      9237      9240      9242
      9238      9237      9240      9243      9239      9237      9240      9241
      9239      9237      9240      9242      9239      9237      9240      9243
      9240      9243      9246      9247      9240      9243      9246      9248
      9240      9243      9246      9249      9241      9240      9243      9244
      9241      9240      9243      9245      9241      9240      9243      9246
      9242      9240      9243      9244      9242      9240      9243      9245
      9242      9240      9243      9246      9243      9246      9249      9250
      9243      9246      9249      9251      9243      9246      9249      9252
      9244      9243      9246      9247      9244      9243      9246      9248
      9244      9243      9246      9249      9245      9243      9246      9247
      9245      9243      9246      9248      9245      9243      9246      9249
      9247      9246      9249      9250      9247      9246      9249      9251
      9247      9246      9249      9252      9248      9246      9249      9250
      9248      9246      9249      9251      9248      9246      9249      9252
      9253      9254      9269      9270      9253      9254      9269      9271
      9253      9254      9269      9275      9254      9253      9257      9258
      9254      9253      9257      9259      9254      9253      9257      9260
      9254      9253      9261      9262      9254      9253      9261      9263
      9254      9253      9261      9264      9254      9253      9265      9266
      9254      9253      9265      9267      9254      9253      9265      9268
      9254      9269      9275      9272      9255      9254      9253      9257
      9255      9254      9253      9261      9255      9254      9253      9265
      9255      9254      9269      9270      9255      9254      9269      9271
      9255      9254      9269      9275      9256      9254      9253      9257
      9256      9254      9253      9261      9256      9254      9253      9265
      9256      9254      9269      9270      9256      9254      9269      9271
      9256      9254      9269      9275      9257      9253      9254      9269
      9257      9253      9261      9262      9257      9253      9261      9263
      9257      9253      9261      9264      9257      9253      9265      9266
      9257      9253      9265      9267      9257      9253      9265      9268
      9258      9257      9253      9261      9258      9257      9253      9265
      9259      9257      9253      9261      9259      9257      9253      9265
      9260      9257      9253      9261      9260      9257      9253      9265
      9261      9253      9254      9269      9261      9253      9265      9266
      9261      9253      9265      9267      9261      9253      9265      9268
      9262      9261      9253      9265      9263      9261      9253      9265
      9264      9261      9253      9265      9265      9253      9254      9269
      9269      9275      9272      9273      9269      9275      9272      9274
      9269      9275      9272      9276      9270      9269      9275      9272
      9271      9269      9275      9272      9272      9276      9277      9278
      9272      9276      9277      9279      9272      9276      9277      9280
      9273      9272      9276      9277      9274      9272      9276      9277
      9275      9272      9276      9277      9276      9277      9280      9281
      9276      9277      9280      9282      9276      9277      9280      9288
      9277      9280      9282      9283      9277      9280      9288      9289
      9277      9280      9288      9290      9277      9280      9288      9291
      9278      9277      9280      9281      9278      9277      9280      9282
      9278      9277      9280      9288      9279      9277      9280      9281
      9279      9277      9280      9282      9279      9277      9280      9288
      9280      9282      9283      9284      9280      9282      9283      9285
      9280      9288      9291      9292      9281      9280      9282      9283
      9281      9280      9288      9289      9281      9280      9288      9290
      9281      9280      9288      9291      9282      9280      9288      9289
      9282      9280      9288      9290      9282      9280      9288      9291
      9282      9283      9285      9286      9282      9283      9285      9287
      9282      9283      9285      9297      9283      9282      9280      9288
      9283      9285      9297      9298      9283      9285      9297      9299
      9283      9285      9297      9300      9284      9283      9285      9286
      9284      9283      9285      9287      9284      9283      9285      9297
      9285      9297      9300      9301      9285      9297      9300      9302
      9285      9297      9300      9303      9286      9285      9297      9298
      9286      9285      9297      9299      9286      9285      9297      9300
      9287      9285      9297      9298      9287      9285      9297      9299
      9287      9285      9297      9300      9288      9291      9292      9293
      9288      9291      9292      9294      9289      9288      9291      9292
      9290      9288      9291      9292      9291      9292      9294      9295
      9291      9292      9294      9296      9291      9292      9294      9344
      9292      9294      9344      9345      9292      9294      9344      9346
      9292      9294      9344      9347      9293      9292      9294      9295
      9293      9292      9294      9296      9293      9292      9294      9344
      9294      9344      9347      9348      9294      9344      9347      9349
      9294      9344      9347      9350      9295      9294      9344      9345
      9295      9294      9344      9346      9295      9294      9344      9347
      9296      9294      9344      9345      9296      9294      9344      9346
      9296      9294      9344      9347      9297      9300      9303      9304
      9297      9300      9303      9305      9297      9300      9303      9306
      9298      9297      9300      9301      9298      9297      9300      9302
      9298      9297      9300      9303      9299      9297      9300      9301
      9299      9297      9300      9302      9299      9297      9300      9303
      9300      9303      9306      9307      9300      9303      9306      9308
      9300      9303      9306      9309      9301      9300      9303      9304
      9301      9300      9303      9305      9301      9300      9303      9306
      9302      9300      9303      9304      9302      9300      9303      9305
      9302      9300      9303      9306      9303      9306      9309      9310
      9303      9306      9309      9311      9303      9306      9309      9312
      9304      9303      9306      9307      9304      9303      9306      9308
      9304      9303      9306      9309      9305      9303      9306      9307
      9305      9303      9306      9308      9305      9303      9306      9309
      9306      9309      9312      9313      9306      9309      9312      9314
      9306      9309      9312      9315      9307      9306      9309      9310
      9307      9306      9309      9311      9307      9306      9309      9312
      9308      9306      9309      9310      9308      9306      9309      9311
      9308      9306      9309      9312      9309      9312      9315      9316
      9309      9312      9315      9317      9310      9309      9312      9313
      9310      9309      9312      9314      9310      9309      9312      9315
      9311      9309      9312      9313      9311      9309      9312      9314
      9311      9309      9312      9315      9312      9315      9317      9318
      9312      9315      9317      9319      9313      9312      9315      9316
      9313      9312      9315      9317      9314      9312      9315      9316
      9314      9312      9315      9317      9315      9317      9319      9320
      9315      9317      9319      9321      9315      9317      9319      9322
      9316      9315      9317      9318      9316      9315      9317      9319
      9317      9319      9322      9323      9317      9319      9322      9324
      9317      9319      9322      9325      9318      9317      9319      9320
      9318      9317      9319      9321      9318      9317      9319      9322
      9319      9322      9325      9326      9319      9322      9325      9327
      9319      9322      9325      9328      9320      9319      9322      9323
      9320      9319      9322      9324      9320      9319      9322      9325
      9321      9319      9322      9323      9321      9319      9322      9324
      9321      9319      9322      9325      9322      9325      9328      9329
      9322      9325      9328      9330      9322      9325      9328      9331
      9323      9322      9325      9326      9323      9322      9325      9327
      9323      9322      9325      9328      9324      9322      9325      9326
      9324      9322      9325      9327      9324      9322      9325      9328
      9325      9328      9331      9332      9325      9328      9331      9333
      9325      9328      9331      9334      9326      9325      9328      9329
      9326      9325      9328      9330      9326      9325      9328      9331
      9327      9325      9328      9329      9327      9325      9328      9330
      9327      9325      9328      9331      9328      9331      9334      9335
      9328      9331      9334      9336      9328      9331      9334      9337
      9329      9328      9331      9332      9329      9328      9331      9333
      9329      9328      9331      9334      9330      9328      9331      9332
      9330      9328      9331      9333      9330      9328      9331      9334
      9331      9334      9337      9338      9331      9334      9337      9339
      9331      9334      9337      9340      9332      9331      9334      9335
      9332      9331      9334      9336      9332      9331      9334      9337
      9333      9331      9334      9335      9333      9331      9334      9336
      9333      9331      9334      9337      9334      9337      9340      9341
      9334      9337      9340      9342      9334      9337      9340      9343
      9335      9334      9337      9338      9335      9334      9337      9339
      9335      9334      9337      9340      9336      9334      9337      9338
      9336      9334      9337      9339      9336      9334      9337      9340
      9338      9337      9340      9341      9338      9337      9340      9342
      9338      9337      9340      9343      9339      9337      9340      9341
      9339      9337      9340      9342      9339      9337      9340      9343
      9344      9347      9350      9351      9344      9347      9350      9352
      9344      9347      9350      9353      9345      9344      9347      9348
      9345      9344      9347      9349      9345      9344      9347      9350
      9346      9344      9347      9348      9346      9344      9347      9349
      9346      9344      9347      9350      9347      9350      9353      9354
      9347      9350      9353      9355      9347      9350      9353      9356
      9348      9347      9350      9351      9348      9347      9350      9352
      9348      9347      9350      9353      9349      9347      9350      9351
      9349      9347      9350      9352      9349      9347      9350      9353
      9350      9353      9356      9357      9350      9353      9356      9358
      9350      9353      9356      9359      9351      9350      9353      9354
      9351      9350      9353      9355      9351      9350      9353      9356
      9352      9350      9353      9354      9352      9350      9353      9355
      9352      9350      9353      9356      9353      9356      9359      9360
      9353      9356      9359      9361      9353      9356      9359      9362
      9354      9353      9356      9357      9354      9353      9356      9358
      9354      9353      9356      9359      9355      9353      9356      9357
      9355      9353      9356      9358      9355      9353      9356      9359
      9356      9359      9362      9363      9356      9359      9362      9364
      9356      9359      9362      9365      9357      9356      9359      9360
      9357      9356      9359      9361      9357      9356      9359      9362
      9358      9356      9359      9360      9358      9356      9359      9361
      9358      9356      9359      9362      9359      9362      9365      9366
      9359      9362      9365      9367      9359      9362      9365      9368
      9360      9359      9362      9363      9360      9359      9362      9364
      9360      9359      9362      9365      9361      9359      9362      9363
      9361      9359      9362      9364      9361      9359      9362      9365
      9362      9365      9368      9369      9362      9365      9368      9370
      9362      9365      9368      9371      9363      9362      9365      9366
      9363      9362      9365      9367      9363      9362      9365      9368
      9364      9362      9365      9366      9364      9362      9365      9367
      9364      9362      9365      9368      9365      9368      9371      9372
      9365      9368      9371      9373      9365      9368      9371      9374
      9366      9365      9368      9369      9366      9365      9368      9370
      9366      9365      9368      9371      9367      9365      9368      9369
      9367      9365      9368      9370      9367      9365      9368      9371
      9368      9371      9374      9375      9368      9371      9374      9376
      9368      9371      9374      9377      9369      9368      9371      9372
      9369      9368      9371      9373      9369      9368      9371      9374
      9370      9368      9371      9372      9370      9368      9371      9373
      9370      9368      9371      9374      9371      9374      9377      9378
      9371      9374      9377      9379      9371      9374      9377      9380
      9372      9371      9374      9375      9372      9371      9374      9376
      9372      9371      9374      9377      9373      9371      9374      9375
      9373      9371      9374      9376      9373      9371      9374      9377
      9374      9377      9380      9381      9374      9377      9380      9382
      9374      9377      9380      9383      9375      9374      9377      9378
      9375      9374      9377      9379      9375      9374      9377      9380
      9376      9374      9377      9378      9376      9374      9377      9379
      9376      9374      9377      9380      9377      9380      9383      9384
      9377      9380      9383      9385      9377      9380      9383      9386
      9378      9377      9380      9381      9378      9377      9380      9382
      9378      9377      9380      9383      9379      9377      9380      9381
      9379      9377      9380      9382      9379      9377      9380      9383
      9381      9380      9383      9384      9381      9380      9383      9385
      9381      9380      9383      9386      9382      9380      9383      9384
      9382      9380      9383      9385      9382      9380      9383      9386
      9387      9388      9403      9404      9387      9388      9403      9405
      9387      9388      9403      9409      9388      9387      9391      9392
      9388      9387      9391      9393      9388      9387      9391      9394
      9388      9387      9395      9396      9388      9387      9395      9397
      9388      9387      9395      9398      9388      9387      9399      9400
      9388      9387      9399      9401      9388      9387      9399      9402
      9388      9403      9409      9406      9389      9388      9387      9391
      9389      9388      9387      9395      9389      9388      9387      9399
      9389      9388      9403      9404      9389      9388      9403      9405
      9389      9388      9403      9409      9390      9388      9387      9391
      9390      9388      9387      9395      9390      9388      9387      9399
      9390      9388      9403      9404      9390      9388      9403      9405
      9390      9388      9403      9409      9391      9387      9388      9403
      9391      9387      9395      9396      9391      9387      9395      9397
      9391      9387      9395      9398      9391      9387      9399      9400
      9391      9387      9399      9401      9391      9387      9399      9402
      9392      9391      9387      9395      9392      9391      9387      9399
      9393      9391      9387      9395      9393      9391      9387      9399
      9394      9391      9387      9395      9394      9391      9387      9399
      9395      9387      9388      9403      9395      9387      9399      9400
      9395      9387      9399      9401      9395      9387      9399      9402
      9396      9395      9387      9399      9397      9395      9387      9399
      9398      9395      9387      9399      9399      9387      9388      9403
      9403      9409      9406      9407      9403      9409      9406      9408
      9403      9409      9406      9410      9404      9403      9409      9406
      9405      9403      9409      9406      9406      9410      9411      9412
      9406      9410      9411      9413      9406      9410      9411      9414
      9407      9406      9410      9411      9408      9406      9410      9411
      9409      9406      9410      9411      9410      9411      9414      9415
      9410      9411      9414      9416      9410      9411      9414      9422
      9411      9414      9416      9417      9411      9414      9422      9423
      9411      9414      9422      9424      9411      9414      9422      9425
      9412      9411      9414      9415      9412      9411      9414      9416
      9412      9411      9414      9422      9413      9411      9414      9415
      9413      9411      9414      9416      9413      9411      9414      9422
      9414      9416      9417      9418      9414      9416      9417      9419
      9414      9422      9425      9426      9415      9414      9416      9417
      9415      9414      9422      9423      9415      9414      9422      9424
      9415      9414      9422      9425      9416      9414      9422      9423
      9416      9414      9422      9424      9416      9414      9422      9425
      9416      9417      9419      9420      9416      9417      9419      9421
      9416      9417      9419      9431      9417      9416      9414      9422
      9417      9419      9431      9432      9417      9419      9431      9433
      9417      9419      9431      9434      9418      9417      9419      9420
      9418      9417      9419      9421      9418      9417      9419      9431
      9419      9431      9434      9435      9419      9431      9434      9436
      9419      9431      9434      9437      9420      9419      9431      9432
      9420      9419      9431      9433      9420      9419      9431      9434
      9421      9419      9431      9432      9421      9419      9431      9433
      9421      9419      9431      9434      9422      9425      9426      9427
      9422      9425      9426      9428      9423      9422      9425      9426
      9424      9422      9425      9426      9425      9426      9428      9429
      9425      9426      9428      9430      9425      9426      9428      9478
      9426      9428      9478      9479      9426      9428      9478      9480
      9426      9428      9478      9481      9427      9426      9428      9429
      9427      9426      9428      9430      9427      9426      9428      9478
      9428      9478      9481      9482      9428      9478      9481      9483
      9428      9478      9481      9484      9429      9428      9478      9479
      9429      9428      9478      9480      9429      9428      9478      9481
      9430      9428      9478      9479      9430      9428      9478      9480
      9430      9428      9478      9481      9431      9434      9437      9438
      9431      9434      9437      9439      9431      9434      9437      9440
      9432      9431      9434      9435      9432      9431      9434      9436
      9432      9431      9434      9437      9433      9431      9434      9435
      9433      9431      9434      9436      9433      9431      9434      9437
      9434      9437      9440      9441      9434      9437      9440      9442
      9434      9437      9440      9443      9435      9434      9437      9438
      9435      9434      9437      9439      9435      9434      9437      9440
      9436      9434      9437      9438      9436      9434      9437      9439
      9436      9434      9437      9440      9437      9440      9443      9444
      9437      9440      9443      9445      9437      9440      9443      9446
      9438      9437      9440      9441      9438      9437      9440      9442
      9438      9437      9440      9443      9439      9437      9440      9441
      9439      9437      9440      9442      9439      9437      9440      9443
      9440      9443      9446      9447      9440      9443      9446      9448
      9440      9443      9446      9449      9441      9440      9443      9444
      9441      9440      9443      9445      9441      9440      9443      9446
      9442      9440      9443      9444      9442      9440      9443      9445
      9442      9440      9443      9446      9443      9446      9449      9450
      9443      9446      9449      9451      9444      9443      9446      9447
      9444      9443      9446      9448      9444      9443      9446      9449
      9445      9443      9446      9447      9445      9443      9446      9448
      9445      9443      9446      9449      9446      9449      9451      9452
      9446      9449      9451      9453      9447      9446      9449      9450
      9447      9446      9449      9451      9448      9446      9449      9450
      9448      9446      9449      9451      9449      9451      9453      9454
      9449      9451      9453      9455      9449      9451      9453      9456
      9450      9449      9451      9452      9450      9449      9451      9453
      9451      9453      9456      9457      9451      9453      9456      9458
      9451      9453      9456      9459      9452      9451      9453      9454
      9452      9451      9453      9455      9452      9451      9453      9456
      9453      9456      9459      9460      9453      9456      9459      9461
      9453      9456      9459      9462      9454      9453      9456      9457
      9454      9453      9456      9458      9454      9453      9456      9459
      9455      9453      9456      9457      9455      9453      9456      9458
      9455      9453      9456      9459      9456      9459      9462      9463
      9456      9459      9462      9464      9456      9459      9462      9465
      9457      9456      9459      9460      9457      9456      9459      9461
      9457      9456      9459      9462      9458      9456      9459      9460
      9458      9456      9459      9461      9458      9456      9459      9462
      9459      9462      9465      9466      9459      9462      9465      9467
      9459      9462      9465      9468      9460      9459      9462      9463
      9460      9459      9462      9464      9460      9459      9462      9465
      9461      9459      9462      9463      9461      9459      9462      9464
      9461      9459      9462      9465      9462      9465      9468      9469
      9462      9465      9468      9470      9462      9465      9468      9471
      9463      9462      9465      9466      9463      9462      9465      9467
      9463      9462      9465      9468      9464      9462      9465      9466
      9464      9462      9465      9467      9464      9462      9465      9468
      9465      9468      9471      9472      9465      9468      9471      9473
      9465      9468      9471      9474      9466      9465      9468      9469
      9466      9465      9468      9470      9466      9465      9468      9471
      9467      9465      9468      9469      9467      9465      9468      9470
      9467      9465      9468      9471      9468      9471      9474      9475
      9468      9471      9474      9476      9468      9471      9474      9477
      9469      9468      9471      9472      9469      9468      9471      9473
      9469      9468      9471      9474      9470      9468      9471      9472
      9470      9468      9471      9473      9470      9468      9471      9474
      9472      9471      9474      9475      9472      9471      9474      9476
      9472      9471      9474      9477      9473      9471      9474      9475
      9473      9471      9474      9476      9473      9471      9474      9477
      9478      9481      9484      9485      9478      9481      9484      9486
      9478      9481      9484      9487      9479      9478      9481      9482
      9479      9478      9481      9483      9479      9478      9481      9484
      9480      9478      9481      9482      9480      9478      9481      9483
      9480      9478      9481      9484      9481      9484      9487      9488
      9481      9484      9487      9489      9481      9484      9487      9490
      9482      9481      9484      9485      9482      9481      9484      9486
      9482      9481      9484      9487      9483      9481      9484      9485
      9483      9481      9484      9486      9483      9481      9484      9487
      9484      9487      9490      9491      9484      9487      9490      9492
      9484      9487      9490      9493      9485      9484      9487      9488
      9485      9484      9487      9489      9485      9484      9487      9490
      9486      9484      9487      9488      9486      9484      9487      9489
      9486      9484      9487      9490      9487      9490      9493      9494
      9487      9490      9493      9495      9487      9490      9493      9496
      9488      9487      9490      9491      9488      9487      9490      9492
      9488      9487      9490      9493      9489      9487      9490      9491
      9489      9487      9490      9492      9489      9487      9490      9493
      9490      9493      9496      9497      9490      9493      9496      9498
      9490      9493      9496      9499      9491      9490      9493      9494
      9491      9490      9493      9495      9491      9490      9493      9496
      9492      9490      9493      9494      9492      9490      9493      9495
      9492      9490      9493      9496      9493      9496      9499      9500
      9493      9496      9499      9501      9493      9496      9499      9502
      9494      9493      9496      9497      9494      9493      9496      9498
      9494      9493      9496      9499      9495      9493      9496      9497
      9495      9493      9496      9498      9495      9493      9496      9499
      9496      9499      9502      9503      9496      9499      9502      9504
      9496      9499      9502      9505      9497      9496      9499      9500
      9497      9496      9499      9501      9497      9496      9499      9502
      9498      9496      9499      9500      9498      9496      9499      9501
      9498      9496      9499      9502      9499      9502      9505      9506
      9499      9502      9505      9507      9499      9502      9505      9508
      9500      9499      9502      9503      9500      9499      9502      9504
      9500      9499      9502      9505      9501      9499      9502      9503
      9501      9499      9502      9504      9501      9499      9502      9505
      9502      9505      9508      9509      9502      9505      9508      9510
      9502      9505      9508      9511      9503      9502      9505      9506
      9503      9502      9505      9507      9503      9502      9505      9508
      9504      9502      9505      9506      9504      9502      9505      9507
      9504      9502      9505      9508      9505      9508      9511      9512
      9505      9508      9511      9513      9505      9508      9511      9514
      9506      9505      9508      9509      9506      9505      9508      9510
      9506      9505      9508      9511      9507      9505      9508      9509
      9507      9505      9508      9510      9507      9505      9508      9511
      9508      9511      9514      9515      9508      9511      9514      9516
      9508      9511      9514      9517      9509      9508      9511      9512
      9509      9508      9511      9513      9509      9508      9511      9514
      9510      9508      9511      9512      9510      9508      9511      9513
      9510      9508      9511      9514      9511      9514      9517      9518
      9511      9514      9517      9519      9511      9514      9517      9520
      9512      9511      9514      9515      9512      9511      9514      9516
      9512      9511      9514      9517      9513      9511      9514      9515
      9513      9511      9514      9516      9513      9511      9514      9517
      9515      9514      9517      9518      9515      9514      9517      9519
      9515      9514      9517      9520      9516      9514      9517      9518
      9516      9514      9517      9519      9516      9514      9517      9520
      9521      9525      9527      9528      9521      9525      9527      9529
      9521      9525      9530      9531      9521      9525      9530      9532
      9521      9525      9530      9536      9522      9521      9525      9526
      9522      9521      9525      9527      9522      9521      9525      9530
      9523      9521      9525      9526      9523      9521      9525      9527
      9523      9521      9525      9530      9524      9521      9525      9526
      9524      9521      9525      9527      9524      9521      9525      9530
      9525      9530      9536      9533      9526      9525      9527      9528
      9526      9525      9527      9529      9526      9525      9530      9531
      9526      9525      9530      9532      9526      9525      9530      9536
      9527      9525      9530      9531      9527      9525      9530      9532
      9527      9525      9530      9536      9528      9527      9525      9530
      9529      9527      9525      9530      9530      9536      9533      9534
      9530      9536      9533      9535      9530      9536      9533      9537
      9531      9530      9536      9533      9532      9530      9536      9533
      9533      9537      9538      9539      9533      9537      9538      9540
      9533      9537      9538      9541      9534      9533      9537      9538
      9535      9533      9537      9538      9536      9533      9537      9538
      9537      9538      9541      9542      9537      9538      9541      9543
      9537      9538      9541      9549      9538      9541      9543      9544
      9538      9541      9549      9550      9538      9541      9549      9551
      9538      9541      9549      9552      9539      9538      9541      9542
      9539      9538      9541      9543      9539      9538      9541      9549
      9540      9538      9541      9542      9540      9538      9541      9543
      9540      9538      9541      9549      9541      9543      9544      9545
      9541      9543      9544      9546      9541      9549      9552      9553
      9542      9541      9543      9544      9542      9541      9549      9550
      9542      9541      9549      9551      9542      9541      9549      9552
      9543      9541      9549      9550      9543      9541      9549      9551
      9543      9541      9549      9552      9543      9544      9546      9547
      9543      9544      9546      9548      9543      9544      9546      9558
      9544      9543      9541      9549      9544      9546      9558      9559
      9544      9546      9558      9560      9544      9546      9558      9561
      9545      9544      9546      9547      9545      9544      9546      9548
      9545      9544      9546      9558      9546      9558      9561      9562
      9546      9558      9561      9563      9546      9558      9561      9564
      9547      9546      9558      9559      9547      9546      9558      9560
      9547      9546      9558      9561      9548      9546      9558      9559
      9548      9546      9558      9560      9548      9546      9558      9561
      9549      9552      9553      9554      9549      9552      9553      9555
      9550      9549      9552      9553      9551      9549      9552      9553
      9552      9553      9555      9556      9552      9553      9555      9557
      9552      9553      9555      9605      9553      9555      9605      9606
      9553      9555      9605      9607      9553      9555      9605      9608
      9554      9553      9555      9556      9554      9553      9555      9557
      9554      9553      9555      9605      9555      9605      9608      9609
      9555      9605      9608      9610      9555      9605      9608      9611
      9556      9555      9605      9606      9556      9555      9605      9607
      9556      9555      9605      9608      9557      9555      9605      9606
      9557      9555      9605      9607      9557      9555      9605      9608
      9558      9561      9564      9565      9558      9561      9564      9566
      9558      9561      9564      9567      9559      9558      9561      9562
      9559      9558      9561      9563      9559      9558      9561      9564
      9560      9558      9561      9562      9560      9558      9561      9563
      9560      9558      9561      9564      9561      9564      9567      9568
      9561      9564      9567      9569      9561      9564      9567      9570
      9562      9561      9564      9565      9562      9561      9564      9566
      9562      9561      9564      9567      9563      9561      9564      9565
      9563      9561      9564      9566      9563      9561      9564      9567
      9564      9567      9570      9571      9564      9567      9570      9572
      9564      9567      9570      9573      9565      9564      9567      9568
      9565      9564      9567      9569      9565      9564      9567      9570
      9566      9564      9567      9568      9566      9564      9567      9569
      9566      9564      9567      9570      9567      9570      9573      9574
      9567      9570      9573      9575      9567      9570      9573      9576
      9568      9567      9570      9571      9568      9567      9570      9572
      9568      9567      9570      9573      9569      9567      9570      9571
      9569      9567      9570      9572      9569      9567      9570      9573
      9570      9573      9576      9577      9570      9573      9576      9578
      9571      9570      9573      9574      9571      9570      9573      9575
      9571      9570      9573      9576      9572      9570      9573      9574
      9572      9570      9573      9575      9572      9570      9573      9576
      9573      9576      9578      9579      9573      9576      9578      9580
      9574      9573      9576      9577      9574      9573      9576      9578
      9575      9573      9576      9577      9575      9573      9576      9578
      9576      9578      9580      9581      9576      9578      9580      9582
      9576      9578      9580      9583      9577      9576      9578      9579
      9577      9576      9578      9580      9578      9580      9583      9584
      9578      9580      9583      9585      9578      9580      9583      9586
      9579      9578      9580      9581      9579      9578      9580      9582
      9579      9578      9580      9583      9580      9583      9586      9587
      9580      9583      9586      9588      9580      9583      9586      9589
      9581      9580      9583      9584      9581      9580      9583      9585
      9581      9580      9583      9586      9582      9580      9583      9584
      9582      9580      9583      9585      9582      9580      9583      9586
      9583      9586      9589      9590      9583      9586      9589      9591
      9583      9586      9589      9592      9584      9583      9586      9587
      9584      9583      9586      9588      9584      9583      9586      9589
      9585      9583      9586      9587      9585      9583      9586      9588
      9585      9583      9586      9589      9586      9589      9592      9593
      9586      9589      9592      9594      9586      9589      9592      9595
      9587      9586      9589      9590      9587      9586      9589      9591
      9587      9586      9589      9592      9588      9586      9589      9590
      9588      9586      9589      9591      9588      9586      9589      9592
      9589      9592      9595      9596      9589      9592      9595      9597
      9589      9592      9595      9598      9590      9589      9592      9593
      9590      9589      9592      9594      9590      9589      9592      9595
      9591      9589      9592      9593      9591      9589      9592      9594
      9591      9589      9592      9595      9592      9595      9598      9599
      9592      9595      9598      9600      9592      9595      9598      9601
      9593      9592      9595      9596      9593      9592      9595      9597
      9593      9592      9595      9598      9594      9592      9595      9596
      9594      9592      9595      9597      9594      9592      9595      9598
      9595      9598      9601      9602      9595      9598      9601      9603
      9595      9598      9601      9604      9596      9595      9598      9599
      9596      9595      9598      9600      9596      9595      9598      9601
      9597      9595      9598      9599      9597      9595      9598      9600
      9597      9595      9598      9601      9599      9598      9601      9602
      9599      9598      9601      9603      9599      9598      9601      9604
      9600      9598      9601      9602      9600      9598      9601      9603
      9600      9598      9601      9604      9605      9608      9611      9612
      9605      9608      9611      9613      9605      9608      9611      9614
      9606      9605      9608      9609      9606      9605      9608      9610
      9606      9605      9608      9611      9607      9605      9608      9609
      9607      9605      9608      9610      9607      9605      9608      9611
      9608      9611      9614      9615      9608      9611      9614      9616
      9608      9611      9614      9617      9609      9608      9611      9612
      9609      9608      9611      9613      9609      9608      9611      9614
      9610      9608      9611      9612      9610      9608      9611      9613
      9610      9608      9611      9614      9611      9614      9617      9618
      9611      9614      9617      9619      9611      9614      9617      9620
      9612      9611      9614      9615      9612      9611      9614      9616
      9612      9611      9614      9617      9613      9611      9614      9615
      9613      9611      9614      9616      9613      9611      9614      9617
      9614      9617      9620      9621      9614      9617      9620      9622
      9614      9617      9620      9623      9615      9614      9617      9618
      9615      9614      9617      9619      9615      9614      9617      9620
      9616      9614      9617      9618      9616      9614      9617      9619
      9616      9614      9617      9620      9617      9620      9623      9624
      9617      9620      9623      9625      9617      9620      9623      9626
      9618      9617      9620      9621      9618      9617      9620      9622
      9618      9617      9620      9623      9619      9617      9620      9621
      9619      9617      9620      9622      9619      9617      9620      9623
      9620      9623      9626      9627      9620      9623      9626      9628
      9620      9623      9626      9629      9621      9620      9623      9624
      9621      9620      9623      9625      9621      9620      9623      9626
      9622      9620      9623      9624      9622      9620      9623      9625
      9622      9620      9623      9626      9623      9626      9629      9630
      9623      9626      9629      9631      9623      9626      9629      9632
      9624      9623      9626      9627      9624      9623      9626      9628
      9624      9623      9626      9629      9625      9623      9626      9627
      9625      9623      9626      9628      9625      9623      9626      9629
      9626      9629      9632      9633      9626      9629      9632      9634
      9626      9629      9632      9635      9627      9626      9629      9630
      9627      9626      9629      9631      9627      9626      9629      9632
      9628      9626      9629      9630      9628      9626      9629      9631
      9628      9626      9629      9632      9629      9632      9635      9636
      9629      9632      9635      9637      9629      9632      9635      9638
      9630      9629      9632      9633      9630      9629      9632      9634
      9630      9629      9632      9635      9631      9629      9632      9633
      9631      9629      9632      9634      9631      9629      9632      9635
      9632      9635      9638      9639      9632      9635      9638      9640
      9632      9635      9638      9641      9633      9632      9635      9636
      9633      9632      9635      9637      9633      9632      9635      9638
      9634      9632      9635      9636      9634      9632      9635      9637
      9634      9632      9635      9638      9635      9638      9641      9642
      9635      9638      9641      9643      9635      9638      9641      9644
      9636      9635      9638      9639      9636      9635      9638      9640
      9636      9635      9638      9641      9637      9635      9638      9639
      9637      9635      9638      9640      9637      9635      9638      9641
      9638      9641      9644      9645      9638      9641      9644      9646
      9638      9641      9644      9647      9639      9638      9641      9642
      9639      9638      9641      9643      9639      9638      9641      9644
      9640      9638      9641      9642      9640      9638      9641      9643
      9640      9638      9641      9644      9642      9641      9644      9645
      9642      9641      9644      9646      9642      9641      9644      9647
      9643      9641      9644      9645      9643      9641      9644      9646
      9643      9641      9644      9647      9648      9652      9654      9655
      9648      9652      9654      9656      9648      9652      9657      9658
      9648      9652      9657      9659      9648      9652      9657      9663
      9649      9648      9652      9653      9649      9648      9652      9654
      9649      9648      9652      9657      9650      9648      9652      9653
      9650      9648      9652      9654      9650      9648      9652      9657
      9651      9648      9652      9653      9651      9648      9652      9654
      9651      9648      9652      9657      9652      9657      9663      9660
      9653      9652      9654      9655      9653      9652      9654      9656
      9653      9652      9657      9658      9653      9652      9657      9659
      9653      9652      9657      9663      9654      9652      9657      9658
      9654      9652      9657      9659      9654      9652      9657      9663
      9655      9654      9652      9657      9656      9654      9652      9657
      9657      9663      9660      9661      9657      9663      9660      9662
      9657      9663      9660      9664      9658      9657      9663      9660
      9659      9657      9663      9660      9660      9664      9665      9666
      9660      9664      9665      9667      9660      9664      9665      9668
      9661      9660      9664      9665      9662      9660      9664      9665
      9663      9660      9664      9665      9664      9665      9668      9669
      9664      9665      9668      9670      9664      9665      9668      9676
      9665      9668      9670      9671      9665      9668      9676      9677
      9665      9668      9676      9678      9665      9668      9676      9679
      9666      9665      9668      9669      9666      9665      9668      9670
      9666      9665      9668      9676      9667      9665      9668      9669
      9667      9665      9668      9670      9667      9665      9668      9676
      9668      9670      9671      9672      9668      9670      9671      9673
      9668      9676      9679      9680      9669      9668      9670      9671
      9669      9668      9676      9677      9669      9668      9676      9678
      9669      9668      9676      9679      9670      9668      9676      9677
      9670      9668      9676      9678      9670      9668      9676      9679
      9670      9671      9673      9674      9670      9671      9673      9675
      9670      9671      9673      9685      9671      9670      9668      9676
      9671      9673      9685      9686      9671      9673      9685      9687
      9671      9673      9685      9688      9672      9671      9673      9674
      9672      9671      9673      9675      9672      9671      9673      9685
      9673      9685      9688      9689      9673      9685      9688      9690
      9673      9685      9688      9691      9674      9673      9685      9686
      9674      9673      9685      9687      9674      9673      9685      9688
      9675      9673      9685      9686      9675      9673      9685      9687
      9675      9673      9685      9688      9676      9679      9680      9681
      9676      9679      9680      9682      9677      9676      9679      9680
      9678      9676      9679      9680      9679      9680      9682      9683
      9679      9680      9682      9684      9679      9680      9682      9732
      9680      9682      9732      9733      9680      9682      9732      9734
      9680      9682      9732      9735      9681      9680      9682      9683
      9681      9680      9682      9684      9681      9680      9682      9732
      9682      9732      9735      9736      9682      9732      9735      9737
      9682      9732      9735      9738      9683      9682      9732      9733
      9683      9682      9732      9734      9683      9682      9732      9735
      9684      9682      9732      9733      9684      9682      9732      9734
      9684      9682      9732      9735      9685      9688      9691      9692
      9685      9688      9691      9693      9685      9688      9691      9694
      9686      9685      9688      9689      9686      9685      9688      9690
      9686      9685      9688      9691      9687      9685      9688      9689
      9687      9685      9688      9690      9687      9685      9688      9691
      9688      9691      9694      9695      9688      9691      9694      9696
      9688      9691      9694      9697      9689      9688      9691      9692
      9689      9688      9691      9693      9689      9688      9691      9694
      9690      9688      9691      9692      9690      9688      9691      9693
      9690      9688      9691      9694      9691      9694      9697      9698
      9691      9694      9697      9699      9691      9694      9697      9700
      9692      9691      9694      9695      9692      9691      9694      9696
      9692      9691      9694      9697      9693      9691      9694      9695
      9693      9691      9694      9696      9693      9691      9694      9697
      9694      9697      9700      9701      9694      9697      9700      9702
      9694      9697      9700      9703      9695      9694      9697      9698
      9695      9694      9697      9699      9695      9694      9697      9700
      9696      9694      9697      9698      9696      9694      9697      9699
      9696      9694      9697      9700      9697      9700      9703      9704
      9697      9700      9703      9705      9698      9697      9700      9701
      9698      9697      9700      9702      9698      9697      9700      9703
      9699      9697      9700      9701      9699      9697      9700      9702
      9699      9697      9700      9703      9700      9703      9705      9706
      9700      9703      9705      9707      9701      9700      9703      9704
      9701      9700      9703      9705      9702      9700      9703      9704
      9702      9700      9703      9705      9703      9705      9707      9708
      9703      9705      9707      9709      9703      9705      9707      9710
      9704      9703      9705      9706      9704      9703      9705      9707
      9705      9707      9710      9711      9705      9707      9710      9712
      9705      9707      9710      9713      9706      9705      9707      9708
      9706      9705      9707      9709      9706      9705      9707      9710
      9707      9710      9713      9714      9707      9710      9713      9715
      9707      9710      9713      9716      9708      9707      9710      9711
      9708      9707      9710      9712      9708      9707      9710      9713
      9709      9707      9710      9711      9709      9707      9710      9712
      9709      9707      9710      9713      9710      9713      9716      9717
      9710      9713      9716      9718      9710      9713      9716      9719
      9711      9710      9713      9714      9711      9710      9713      9715
      9711      9710      9713      9716      9712      9710      9713      9714
      9712      9710      9713      9715      9712      9710      9713      9716
      9713      9716      9719      9720      9713      9716      9719      9721
      9713      9716      9719      9722      9714      9713      9716      9717
      9714      9713      9716      9718      9714      9713      9716      9719
      9715      9713      9716      9717      9715      9713      9716      9718
      9715      9713      9716      9719      9716      9719      9722      9723
      9716      9719      9722      9724      9716      9719      9722      9725
      9717      9716      9719      9720      9717      9716      9719      9721
      9717      9716      9719      9722      9718      9716      9719      9720
      9718      9716      9719      9721      9718      9716      9719      9722
      9719      9722      9725      9726      9719      9722      9725      9727
      9719      9722      9725      9728      9720      9719      9722      9723
      9720      9719      9722      9724      9720      9719      9722      9725
      9721      9719      9722      9723      9721      9719      9722      9724
      9721      9719      9722      9725      9722      9725      9728      9729
      9722      9725      9728      9730      9722      9725      9728      9731
      9723      9722      9725      9726      9723      9722      9725      9727
      9723      9722      9725      9728      9724      9722      9725      9726
      9724      9722      9725      9727      9724      9722      9725      9728
      9726      9725      9728      9729      9726      9725      9728      9730
      9726      9725      9728      9731      9727      9725      9728      9729
      9727      9725      9728      9730      9727      9725      9728      9731
      9732      9735      9738      9739      9732      9735      9738      9740
      9732      9735      9738      9741      9733      9732      9735      9736
      9733      9732      9735      9737      9733      9732      9735      9738
      9734      9732      9735      9736      9734      9732      9735      9737
      9734      9732      9735      9738      9735      9738      9741      9742
      9735      9738      9741      9743      9735      9738      9741      9744
      9736      9735      9738      9739      9736      9735      9738      9740
      9736      9735      9738      9741      9737      9735      9738      9739
      9737      9735      9738      9740      9737      9735      9738      9741
      9738      9741      9744      9745      9738      9741      9744      9746
      9738      9741      9744      9747      9739      9738      9741      9742
      9739      9738      9741      9743      9739      9738      9741      9744
      9740      9738      9741      9742      9740      9738      9741      9743
      9740      9738      9741      9744      9741      9744      9747      9748
      9741      9744      9747      9749      9741      9744      9747      9750
      9742      9741      9744      9745      9742      9741      9744      9746
      9742      9741      9744      9747      9743      9741      9744      9745
      9743      9741      9744      9746      9743      9741      9744      9747
      9744      9747      9750      9751      9744      9747      9750      9752
      9744      9747      9750      9753      9745      9744      9747      9748
      9745      9744      9747      9749      9745      9744      9747      9750
      9746      9744      9747      9748      9746      9744      9747      9749
      9746      9744      9747      9750      9747      9750      9753      9754
      9747      9750      9753      9755      9747      9750      9753      9756
      9748      9747      9750      9751      9748      9747      9750      9752
      9748      9747      9750      9753      9749      9747      9750      9751
      9749      9747      9750      9752      9749      9747      9750      9753
      9750      9753      9756      9757      9750      9753      9756      9758
      9750      9753      9756      9759      9751      9750      9753      9754
      9751      9750      9753      9755      9751      9750      9753      9756
      9752      9750      9753      9754      9752      9750      9753      9755
      9752      9750      9753      9756      9753      9756      9759      9760
      9753      9756      9759      9761      9753      9756      9759      9762
      9754      9753      9756      9757      9754      9753      9756      9758
      9754      9753      9756      9759      9755      9753      9756      9757
      9755      9753      9756      9758      9755      9753      9756      9759
      9756      9759      9762      9763      9756      9759      9762      9764
      9756      9759      9762      9765      9757      9756      9759      9760
      9757      9756      9759      9761      9757      9756      9759      9762
      9758      9756      9759      9760      9758      9756      9759      9761
      9758      9756      9759      9762      9759      9762      9765      9766
      9759      9762      9765      9767      9759      9762      9765      9768
      9760      9759      9762      9763      9760      9759      9762      9764
      9760      9759      9762      9765      9761      9759      9762      9763
      9761      9759      9762      9764      9761      9759      9762      9765
      9762      9765      9768      9769      9762      9765      9768      9770
      9762      9765      9768      9771      9763      9762      9765      9766
      9763      9762      9765      9767      9763      9762      9765      9768
      9764      9762      9765      9766      9764      9762      9765      9767
      9764      9762      9765      9768      9765      9768      9771      9772
      9765      9768      9771      9773      9765      9768      9771      9774
      9766      9765      9768      9769      9766      9765      9768      9770
      9766      9765      9768      9771      9767      9765      9768      9769
      9767      9765      9768      9770      9767      9765      9768      9771
      9769      9768      9771      9772      9769      9768      9771      9773
      9769      9768      9771      9774      9770      9768      9771      9772
      9770      9768      9771      9773      9770      9768      9771      9774
      9775      9776      9791      9792      9775      9776      9791      9793
      9775      9776      9791      9797      9776      9775      9779      9780
      9776      9775      9779      9781      9776      9775      9779      9782
      9776      9775      9783      9784      9776      9775      9783      9785
      9776      9775      9783      9786      9776      9775      9787      9788
      9776      9775      9787      9789      9776      9775      9787      9790
      9776      9791      9797      9794      9777      9776      9775      9779
      9777      9776      9775      9783      9777      9776      9775      9787
      9777      9776      9791      9792      9777      9776      9791      9793
      9777      9776      9791      9797      9778      9776      9775      9779
      9778      9776      9775      9783      9778      9776      9775      9787
      9778      9776      9791      9792      9778      9776      9791      9793
      9778      9776      9791      9797      9779      9775      9776      9791
      9779      9775      9783      9784      9779      9775      9783      9785
      9779      9775      9783      9786      9779      9775      9787      9788
      9779      9775      9787      9789      9779      9775      9787      9790
      9780      9779      9775      9783      9780      9779      9775      9787
      9781      9779      9775      9783      9781      9779      9775      9787
      9782      9779      9775      9783      9782      9779      9775      9787
      9783      9775      9776      9791      9783      9775      9787      9788
      9783      9775      9787      9789      9783      9775      9787      9790
      9784      9783      9775      9787      9785      9783      9775      9787
      9786      9783      9775      9787      9787      9775      9776      9791
      9791      9797      9794      9795      9791      9797      9794      9796
      9791      9797      9794      9798      9792      9791      9797      9794
      9793      9791      9797      9794      9794      9798      9799      9800
      9794      9798      9799      9801      9794      9798      9799      9802
      9795      9794      9798      9799      9796      9794      9798      9799
      9797      9794      9798      9799      9798      9799      9802      9803
      9798      9799      9802      9804      9798      9799      9802      9810
      9799      9802      9804      9805      9799      9802      9810      9811
      9799      9802      9810      9812      9799      9802      9810      9813
      9800      9799      9802      9803      9800      9799      9802      9804
      9800      9799      9802      9810      9801      9799      9802      9803
      9801      9799      9802      9804      9801      9799      9802      9810
      9802      9804      9805      9806      9802      9804      9805      9807
      9802      9810      9813      9814      9803      9802      9804      9805
      9803      9802      9810      9811      9803      9802      9810      9812
      9803      9802      9810      9813      9804      9802      9810      9811
      9804      9802      9810      9812      9804      9802      9810      9813
      9804      9805      9807      9808      9804      9805      9807      9809
      9804      9805      9807      9819      9805      9804      9802      9810
      9805      9807      9819      9820      9805      9807      9819      9821
      9805      9807      9819      9822      9806      9805      9807      9808
      9806      9805      9807      9809      9806      9805      9807      9819
      9807      9819      9822      9823      9807      9819      9822      9824
      9807      9819      9822      9825      9808      9807      9819      9820
      9808      9807      9819      9821      9808      9807      9819      9822
      9809      9807      9819      9820      9809      9807      9819      9821
      9809      9807      9819      9822      9810      9813      9814      9815
      9810      9813      9814      9816      9811      9810      9813      9814
      9812      9810      9813      9814      9813      9814      9816      9817
      9813      9814      9816      9818      9813      9814      9816      9866
      9814      9816      9866      9867      9814      9816      9866      9868
      9814      9816      9866      9869      9815      9814      9816      9817
      9815      9814      9816      9818      9815      9814      9816      9866
      9816      9866      9869      9870      9816      9866      9869      9871
      9816      9866      9869      9872      9817      9816      9866      9867
      9817      9816      9866      9868      9817      9816      9866      9869
      9818      9816      9866      9867      9818      9816      9866      9868
      9818      9816      9866      9869      9819      9822      9825      9826
      9819      9822      9825      9827      9819      9822      9825      9828
      9820      9819      9822      9823      9820      9819      9822      9824
      9820      9819      9822      9825      9821      9819      9822      9823
      9821      9819      9822      9824      9821      9819      9822      9825
      9822      9825      9828      9829      9822      9825      9828      9830
      9822      9825      9828      9831      9823      9822      9825      9826
      9823      9822      9825      9827      9823      9822      9825      9828
      9824      9822      9825      9826      9824      9822      9825      9827
      9824      9822      9825      9828      9825      9828      9831      9832
      9825      9828      9831      9833      9825      9828      9831      9834
      9826      9825      9828      9829      9826      9825      9828      9830
      9826      9825      9828      9831      9827      9825      9828      9829
      9827      9825      9828      9830      9827      9825      9828      9831
      9828      9831      9834      9835      9828      9831      9834      9836
      9828      9831      9834      9837      9829      9828      9831      9832
      9829      9828      9831      9833      9829      9828      9831      9834
      9830      9828      9831      9832      9830      9828      9831      9833
      9830      9828      9831      9834      9831      9834      9837      9838
      9831      9834      9837      9839      9832      9831      9834      9835
      9832      9831      9834      9836      9832      9831      9834      9837
      9833      9831      9834      9835      9833      9831      9834      9836
      9833      9831      9834      9837      9834      9837      9839      9840
      9834      9837      9839      9841      9835      9834      9837      9838
      9835      9834      9837      9839      9836      9834      9837      9838
      9836      9834      9837      9839      9837      9839      9841      9842
      9837      9839      9841      9843      9837      9839      9841      9844
      9838      9837      9839      9840      9838      9837      9839      9841
      9839      9841      9844      9845      9839      9841      9844      9846
      9839      9841      9844      9847      9840      9839      9841      9842
      9840      9839      9841      9843      9840      9839      9841      9844
      9841      9844      9847      9848      9841      9844      9847      9849
      9841      9844      9847      9850      9842      9841      9844      9845
      9842      9841      9844      9846      9842      9841      9844      9847
      9843      9841      9844      9845      9843      9841      9844      9846
      9843      9841      9844      9847      9844      9847      9850      9851
      9844      9847      9850      9852      9844      9847      9850      9853
      9845      9844      9847      9848      9845      9844      9847      9849
      9845      9844      9847      9850      9846      9844      9847      9848
      9846      9844      9847      9849      9846      9844      9847      9850
      9847      9850      9853      9854      9847      9850      9853      9855
      9847      9850      9853      9856      9848      9847      9850      9851
      9848      9847      9850      9852      9848      9847      9850      9853
      9849      9847      9850      9851      9849      9847      9850      9852
      9849      9847      9850      9853      9850      9853      9856      9857
      9850      9853      9856      9858      9850      9853      9856      9859
      9851      9850      9853      9854      9851      9850      9853      9855
      9851      9850      9853      9856      9852      9850      9853      9854
      9852      9850      9853      9855      9852      9850      9853      9856
      9853      9856      9859      9860      9853      9856      9859      9861
      9853      9856      9859      9862      9854      9853      9856      9857
      9854      9853      9856      9858      9854      9853      9856      9859
      9855      9853      9856      9857      9855      9853      9856      9858
      9855      9853      9856      9859      9856      9859      9862      9863
      9856      9859      9862      9864      9856      9859      9862      9865
      9857      9856      9859      9860      9857      9856      9859      9861
      9857      9856      9859      9862      9858      9856      9859      9860
      9858      9856      9859      9861      9858      9856      9859      9862
      9860      9859      9862      9863      9860      9859      9862      9864
      9860      9859      9862      9865      9861      9859      9862      9863
      9861      9859      9862      9864      9861      9859      9862      9865
      9866      9869      9872      9873      9866      9869      9872      9874
      9866      9869      9872      9875      9867      9866      9869      9870
      9867      9866      9869      9871      9867      9866      9869      9872
      9868      9866      9869      9870      9868      9866      9869      9871
      9868      9866      9869      9872      9869      9872      9875      9876
      9869      9872      9875      9877      9869      9872      9875      9878
      9870      9869      9872      9873      9870      9869      9872      9874
      9870      9869      9872      9875      9871      9869      9872      9873
      9871      9869      9872      9874      9871      9869      9872      9875
      9872      9875      9878      9879      9872      9875      9878      9880
      9872      9875      9878      9881      9873      9872      9875      9876
      9873      9872      9875      9877      9873      9872      9875      9878
      9874      9872      9875      9876      9874      9872      9875      9877
      9874      9872      9875      9878      9875      9878      9881      9882
      9875      9878      9881      9883      9875      9878      9881      9884
      9876      9875      9878      9879      9876      9875      9878      9880
      9876      9875      9878      9881      9877      9875      9878      9879
      9877      9875      9878      9880      9877      9875      9878      9881
      9878      9881      9884      9885      9878      9881      9884      9886
      9878      9881      9884      9887      9879      9878      9881      9882
      9879      9878      9881      9883      9879      9878      9881      9884
      9880      9878      9881      9882      9880      9878      9881      9883
      9880      9878      9881      9884      9881      9884      9887      9888
      9881      9884      9887      9889      9881      9884      9887      9890
      9882      9881      9884      9885      9882      9881      9884      9886
      9882      9881      9884      9887      9883      9881      9884      9885
      9883      9881      9884      9886      9883      9881      9884      9887
      9884      9887      9890      9891      9884      9887      9890      9892
      9884      9887      9890      9893      9885      9884      9887      9888
      9885      9884      9887      9889      9885      9884      9887      9890
      9886      9884      9887      9888      9886      9884      9887      9889
      9886      9884      9887      9890      9887      9890      9893      9894
      9887      9890      9893      9895      9887      9890      9893      9896
      9888      9887      9890      9891      9888      9887      9890      9892
      9888      9887      9890      9893      9889      9887      9890      9891
      9889      9887      9890      9892      9889      9887      9890      9893
      9890      9893      9896      9897      9890      9893      9896      9898
      9890      9893      9896      9899      9891      9890      9893      9894
      9891      9890      9893      9895      9891      9890      9893      9896
      9892      9890      9893      9894      9892      9890      9893      9895
      9892      9890      9893      9896      9893      9896      9899      9900
      9893      9896      9899      9901      9893      9896      9899      9902
      9894      9893      9896      9897      9894      9893      9896      9898
      9894      9893      9896      9899      9895      9893      9896      9897
      9895      9893      9896      9898      9895      9893      9896      9899
      9896      9899      9902      9903      9896      9899      9902      9904
      9896      9899      9902      9905      9897      9896      9899      9900
      9897      9896      9899      9901      9897      9896      9899      9902
      9898      9896      9899      9900      9898      9896      9899      9901
      9898      9896      9899      9902      9899      9902      9905      9906
      9899      9902      9905      9907      9899      9902      9905      9908
      9900      9899      9902      9903      9900      9899      9902      9904
      9900      9899      9902      9905      9901      9899      9902      9903
      9901      9899      9902      9904      9901      9899      9902      9905
      9903      9902      9905      9906      9903      9902      9905      9907
      9903      9902      9905      9908      9904      9902      9905      9906
      9904      9902      9905      9907      9904      9902      9905      9908
      9909      9910      9925      9926      9909      9910      9925      9927
      9909      9910      9925      9931      9910      9909      9913      9914
      9910      9909      9913      9915      9910      9909      9913      9916
      9910      9909      9917      9918      9910      9909      9917      9919
      9910      9909      9917      9920      9910      9909      9921      9922
      9910      9909      9921      9923      9910      9909      9921      9924
      9910      9925      9931      9928      9911      9910      9909      9913
      9911      9910      9909      9917      9911      9910      9909      9921
      9911      9910      9925      9926      9911      9910      9925      9927
      9911      9910      9925      9931      9912      9910      9909      9913
      9912      9910      9909      9917      9912      9910      9909      9921
      9912      9910      9925      9926      9912      9910      9925      9927
      9912      9910      9925      9931      9913      9909      9910      9925
      9913      9909      9917      9918      9913      9909      9917      9919
      9913      9909      9917      9920      9913      9909      9921      9922
      9913      9909      9921      9923      9913      9909      9921      9924
      9914      9913      9909      9917      9914      9913      9909      9921
      9915      9913      9909      9917      9915      9913      9909      9921
      9916      9913      9909      9917      9916      9913      9909      9921
      9917      9909      9910      9925      9917      9909      9921      9922
      9917      9909      9921      9923      9917      9909      9921      9924
      9918      9917      9909      9921      9919      9917      9909      9921
      9920      9917      9909      9921      9921      9909      9910      9925
      9925      9931      9928      9929      9925      9931      9928      9930
      9925      9931      9928      9932      9926      9925      9931      9928
      9927      9925      9931      9928      9928      9932      9933      9934
      9928      9932      9933      9935      9928      9932      9933      9936
      9929      9928      9932      9933      9930      9928      9932      9933
      9931      9928      9932      9933      9932      9933      9936      9937
      9932      9933      9936      9938      9932      9933      9936      9944
      9933      9936      9938      9939      9933      9936      9944      9945
      9933      9936      9944      9946      9933      9936      9944      9947
      9934      9933      9936      9937      9934      9933      9936      9938
      9934      9933      9936      9944      9935      9933      9936      9937
      9935      9933      9936      9938      9935      9933      9936      9944
      9936      9938      9939      9940      9936      9938      9939      9941
      9936      9944      9947      9948      9937      9936      9938      9939
      9937      9936      9944      9945      9937      9936      9944      9946
      9937      9936      9944      9947      9938      9936      9944      9945
      9938      9936      9944      9946      9938      9936      9944      9947
      9938      9939      9941      9942      9938      9939      9941      9943
      9938      9939      9941      9953      9939      9938      9936      9944
      9939      9941      9953      9954      9939      9941      9953      9955
      9939      9941      9953      9956      9940      9939      9941      9942
      9940      9939      9941      9943      9940      9939      9941      9953
      9941      9953      9956      9957      9941      9953      9956      9958
      9941      9953      9956      9959      9942      9941      9953      9954
      9942      9941      9953      9955      9942      9941      9953      9956
      9943      9941      9953      9954      9943      9941      9953      9955
      9943      9941      9953      9956      9944      9947      9948      9949
      9944      9947      9948      9950      9945      9944      9947      9948
      9946      9944      9947      9948      9947      9948      9950      9951
      9947      9948      9950      9952      9947      9948      9950     10000
      9948      9950     10000     10001      9948      9950     10000     10002
      9948      9950     10000     10003      9949      9948      9950      9951
      9949      9948      9950      9952      9949      9948      9950     10000
      9950     10000     10003     10004      9950     10000     10003     10005
      9950     10000     10003     10006      9951      9950     10000     10001
      9951      9950     10000     10002      9951      9950     10000     10003
      9952      9950     10000     10001      9952      9950     10000     10002
      9952      9950     10000     10003      9953      9956      9959      9960
      9953      9956      9959      9961      9953      9956      9959      9962
      9954      9953      9956      9957      9954      9953      9956      9958
      9954      9953      9956      9959      9955      9953      9956      9957
      9955      9953      9956      9958      9955      9953      9956      9959
      9956      9959      9962      9963      9956      9959      9962      9964
      9956      9959      9962      9965      9957      9956      9959      9960
      9957      9956      9959      9961      9957      9956      9959      9962
      9958      9956      9959      9960      9958      9956      9959      9961
      9958      9956      9959      9962      9959      9962      9965      9966
      9959      9962      9965      9967      9959      9962      9965      9968
      9960      9959      9962      9963      9960      9959      9962      9964
      9960      9959      9962      9965      9961      9959      9962      9963
      9961      9959      9962      9964      9961      9959      9962      9965
      9962      9965      9968      9969      9962      9965      9968      9970
      9962      9965      9968      9971      9963      9962      9965      9966
      9963      9962      9965      9967      9963      9962      9965      9968
      9964      9962      9965      9966      9964      9962      9965      9967
      9964      9962      9965      9968      9965      9968      9971      9972
      9965      9968      9971      9973      9966      9965      9968      9969
      9966      9965      9968      9970      9966      9965      9968      9971
      9967      9965      9968      9969      9967      9965      9968      9970
      9967      9965      9968      9971      9968      9971      9973      9974
      9968      9971      9973      9975      9969      9968      9971      9972
      9969      9968      9971      9973      9970      9968      9971      9972
      9970      9968      9971      9973      9971      9973      9975      9976
      9971      9973      9975      9977      9971      9973      9975      9978
      9972      9971      9973      9974      9972      9971      9973      9975
      9973      9975      9978      9979      9973      9975      9978      9980
      9973      9975      9978      9981      9974      9973      9975      9976
      9974      9973      9975      9977      9974      9973      9975      9978
      9975      9978      9981      9982      9975      9978      9981      9983
      9975      9978      9981      9984      9976      9975      9978      9979
      9976      9975      9978      9980      9976      9975      9978      9981
      9977      9975      9978      9979      9977      9975      9978      9980
      9977      9975      9978      9981      9978      9981      9984      9985
      9978      9981      9984      9986      9978      9981      9984      9987
      9979      9978      9981      9982      9979      9978      9981      9983
      9979      9978      9981      9984      9980      9978      9981      9982
      9980      9978      9981      9983      9980      9978      9981      9984
      9981      9984      9987      9988      9981      9984      9987      9989
      9981      9984      9987      9990      9982      9981      9984      9985
      9982      9981      9984      9986      9982      9981      9984      9987
      9983      9981      9984      9985      9983      9981      9984      9986
      9983      9981      9984      9987      9984      9987      9990      9991
      9984      9987      9990      9992      9984      9987      9990      9993
      9985      9984      9987      9988      9985      9984      9987      9989
      9985      9984      9987      9990      9986      9984      9987      9988
      9986      9984      9987      9989      9986      9984      9987      9990
      9987      9990      9993      9994      9987      9990      9993      9995
      9987      9990      9993      9996      9988      9987      9990      9991
      9988      9987      9990      9992      9988      9987      9990      9993
      9989      9987      9990      9991      9989      9987      9990      9992
      9989      9987      9990      9993      9990      9993      9996      9997
      9990      9993      9996      9998      9990      9993      9996      9999
      9991      9990      9993      9994      9991      9990      9993      9995
      9991      9990      9993      9996      9992      9990      9993      9994
      9992      9990      9993      9995      9992      9990      9993      9996
      9994      9993      9996      9997      9994      9993      9996      9998
      9994      9993      9996      9999      9995      9993      9996      9997
      9995      9993      9996      9998      9995      9993      9996      9999
     10000     10003     10006     10007     10000     10003     10006     10008
     10000     10003     10006     10009     10001     10000     10003     10004
     10001     10000     10003     10005     10001     10000     10003     10006
     10002     10000     10003     10004     10002     10000     10003     10005
     10002     10000     10003     10006     10003     10006     10009     10010
     10003     10006     10009     10011     10003     10006     10009     10012
     10004     10003     10006     10007     10004     10003     10006     10008
     10004     10003     10006     10009     10005     10003     10006     10007
     10005     10003     10006     10008     10005     10003     10006     10009
     10006     10009     10012     10013     10006     10009     10012     10014
     10006     10009     10012     10015     10007     10006     10009     10010
     10007     10006     10009     10011     10007     10006     10009     10012
     10008     10006     10009     10010     10008     10006     10009     10011
     10008     10006     10009     10012     10009     10012     10015     10016
     10009     10012     10015     10017     10009     10012     10015     10018
     10010     10009     10012     10013     10010     10009     10012     10014
     10010     10009     10012     10015     10011     10009     10012     10013
     10011     10009     10012     10014     10011     10009     10012     10015
     10012     10015     10018     10019     10012     10015     10018     10020
     10012     10015     10018     10021     10013     10012     10015     10016
     10013     10012     10015     10017     10013     10012     10015     10018
     10014     10012     10015     10016     10014     10012     10015     10017
     10014     10012     10015     10018     10015     10018     10021     10022
     10015     10018     10021     10023     10015     10018     10021     10024
     10016     10015     10018     10019     10016     10015     10018     10020
     10016     10015     10018     10021     10017     10015     10018     10019
     10017     10015     10018     10020     10017     10015     10018     10021
     10018     10021     10024     10025     10018     10021     10024     10026
     10018     10021     10024     10027     10019     10018     10021     10022
     10019     10018     10021     10023     10019     10018     10021     10024
     10020     10018     10021     10022     10020     10018     10021     10023
     10020     10018     10021     10024     10021     10024     10027     10028
     10021     10024     10027     10029     10021     10024     10027     10030
     10022     10021     10024     10025     10022     10021     10024     10026
     10022     10021     10024     10027     10023     10021     10024     10025
     10023     10021     10024     10026     10023     10021     10024     10027
     10024     10027     10030     10031     10024     10027     10030     10032
     10024     10027     10030     10033     10025     10024     10027     10028
     10025     10024     10027     10029     10025     10024     10027     10030
     10026     10024     10027     10028     10026     10024     10027     10029
     10026     10024     10027     10030     10027     10030     10033     10034
     10027     10030     10033     10035     10027     10030     10033     10036
     10028     10027     10030     10031     10028     10027     10030     10032
     10028     10027     10030     10033     10029     10027     10030     10031
     10029     10027     10030     10032     10029     10027     10030     10033
     10030     10033     10036     10037     10030     10033     10036     10038
     10030     10033     10036     10039     10031     10030     10033     10034
     10031     10030     10033     10035     10031     10030     10033     10036
     10032     10030     10033     10034     10032     10030     10033     10035
     10032     10030     10033     10036     10033     10036     10039     10040
     10033     10036     10039     10041     10033     10036     10039     10042
     10034     10033     10036     10037     10034     10033     10036     10038
     10034     10033     10036     10039     10035     10033     10036     10037
     10035     10033     10036     10038     10035     10033     10036     10039
     10037     10036     10039     10040     10037     10036     10039     10041
     10037     10036     10039     10042     10038     10036     10039     10040
     10038     10036     10039     10041     10038     10036     10039     10042
     10043     10044     10059     10060     10043     10044     10059     10061
     10043     10044     10059     10065     10044     10043     10047     10048
     10044     10043     10047     10049     10044     10043     10047     10050
     10044     10043     10051     10052     10044     10043     10051     10053
     10044     10043     10051     10054     10044     10043     10055     10056
     10044     10043     10055     10057     10044     10043     10055     10058
     10044     10059     10065     10062     10045     10044     10043     10047
     10045     10044     10043     10051     10045     10044     10043     10055
     10045     10044     10059     10060     10045     10044     10059     10061
     10045     10044     10059     10065     10046     10044     10043     10047
     10046     10044     10043     10051     10046     10044     10043     10055
     10046     10044     10059     10060     10046     10044     10059     10061
     10046     10044     10059     10065     10047     10043     10044     10059
     10047     10043     10051     10052     10047     10043     10051     10053
     10047     10043     10051     10054     10047     10043     10055     10056
     10047     10043     10055     10057     10047     10043     10055     10058
     10048     10047     10043     10051     10048     10047     10043     10055
     10049     10047     10043     10051     10049     10047     10043     10055
     10050     10047     10043     10051     10050     10047     10043     10055
     10051     10043     10044     10059     10051     10043     10055     10056
     10051     10043     10055     10057     10051     10043     10055     10058
     10052     10051     10043     10055     10053     10051     10043     10055
     10054     10051     10043     10055     10055     10043     10044     10059
     10059     10065     10062     10063     10059     10065     10062     10064
     10059     10065     10062     10066     10060     10059     10065     10062
     10061     10059     10065     10062     10062     10066     10067     10068
     10062     10066     10067     10069     10062     10066     10067     10070
     10063     10062     10066     10067     10064     10062     10066     10067
     10065     10062     10066     10067     10066     10067     10070     10071
     10066     10067     10070     10072     10066     10067     10070     10078
     10067     10070     10072     10073     10067     10070     10078     10079
     10067     10070     10078     10080     10067     10070     10078     10081
     10068     10067     10070     10071     10068     10067     10070     10072
     10068     10067     10070     10078     10069     10067     10070     10071
     10069     10067     10070     10072     10069     10067     10070     10078
     10070     10072     10073     10074     10070     10072     10073     10075
     10070     10078     10081     10082     10071     10070     10072     10073
     10071     10070     10078     10079     10071     10070     10078     10080
     10071     10070     10078     10081     10072     10070     10078     10079
     10072     10070     10078     10080     10072     10070     10078     10081
     10072     10073     10075     10076     10072     10073     10075     10077
     10072     10073     10075     10087     10073     10072     10070     10078
     10073     10075     10087     10088     10073     10075     10087     10089
     10073     10075     10087     10090     10074     10073     10075     10076
     10074     10073     10075     10077     10074     10073     10075     10087
     10075     10087     10090     10091     10075     10087     10090     10092
     10075     10087     10090     10093     10076     10075     10087     10088
     10076     10075     10087     10089     10076     10075     10087     10090
     10077     10075     10087     10088     10077     10075     10087     10089
     10077     10075     10087     10090     10078     10081     10082     10083
     10078     10081     10082     10084     10079     10078     10081     10082
     10080     10078     10081     10082     10081     10082     10084     10085
     10081     10082     10084     10086     10081     10082     10084     10134
     10082     10084     10134     10135     10082     10084     10134     10136
     10082     10084     10134     10137     10083     10082     10084     10085
     10083     10082     10084     10086     10083     10082     10084     10134
     10084     10134     10137     10138     10084     10134     10137     10139
     10084     10134     10137     10140     10085     10084     10134     10135
     10085     10084     10134     10136     10085     10084     10134     10137
     10086     10084     10134     10135     10086     10084     10134     10136
     10086     10084     10134     10137     10087     10090     10093     10094
     10087     10090     10093     10095     10087     10090     10093     10096
     10088     10087     10090     10091     10088     10087     10090     10092
     10088     10087     10090     10093     10089     10087     10090     10091
     10089     10087     10090     10092     10089     10087     10090     10093
     10090     10093     10096     10097     10090     10093     10096     10098
     10090     10093     10096     10099     10091     10090     10093     10094
     10091     10090     10093     10095     10091     10090     10093     10096
     10092     10090     10093     10094     10092     10090     10093     10095
     10092     10090     10093     10096     10093     10096     10099     10100
     10093     10096     10099     10101     10093     10096     10099     10102
     10094     10093     10096     10097     10094     10093     10096     10098
     10094     10093     10096     10099     10095     10093     10096     10097
     10095     10093     10096     10098     10095     10093     10096     10099
     10096     10099     10102     10103     10096     10099     10102     10104
     10096     10099     10102     10105     10097     10096     10099     10100
     10097     10096     10099     10101     10097     10096     10099     10102
     10098     10096     10099     10100     10098     10096     10099     10101
     10098     10096     10099     10102     10099     10102     10105     10106
     10099     10102     10105     10107     10100     10099     10102     10103
     10100     10099     10102     10104     10100     10099     10102     10105
     10101     10099     10102     10103     10101     10099     10102     10104
     10101     10099     10102     10105     10102     10105     10107     10108
     10102     10105     10107     10109     10103     10102     10105     10106
     10103     10102     10105     10107     10104     10102     10105     10106
     10104     10102     10105     10107     10105     10107     10109     10110
     10105     10107     10109     10111     10105     10107     10109     10112
     10106     10105     10107     10108     10106     10105     10107     10109
     10107     10109     10112     10113     10107     10109     10112     10114
     10107     10109     10112     10115     10108     10107     10109     10110
     10108     10107     10109     10111     10108     10107     10109     10112
     10109     10112     10115     10116     10109     10112     10115     10117
     10109     10112     10115     10118     10110     10109     10112     10113
     10110     10109     10112     10114     10110     10109     10112     10115
     10111     10109     10112     10113     10111     10109     10112     10114
     10111     10109     10112     10115     10112     10115     10118     10119
     10112     10115     10118     10120     10112     10115     10118     10121
     10113     10112     10115     10116     10113     10112     10115     10117
     10113     10112     10115     10118     10114     10112     10115     10116
     10114     10112     10115     10117     10114     10112     10115     10118
     10115     10118     10121     10122     10115     10118     10121     10123
     10115     10118     10121     10124     10116     10115     10118     10119
     10116     10115     10118     10120     10116     10115     10118     10121
     10117     10115     10118     10119     10117     10115     10118     10120
     10117     10115     10118     10121     10118     10121     10124     10125
     10118     10121     10124     10126     10118     10121     10124     10127
     10119     10118     10121     10122     10119     10118     10121     10123
     10119     10118     10121     10124     10120     10118     10121     10122
     10120     10118     10121     10123     10120     10118     10121     10124
     10121     10124     10127     10128     10121     10124     10127     10129
     10121     10124     10127     10130     10122     10121     10124     10125
     10122     10121     10124     10126     10122     10121     10124     10127
     10123     10121     10124     10125     10123     10121     10124     10126
     10123     10121     10124     10127     10124     10127     10130     10131
     10124     10127     10130     10132     10124     10127     10130     10133
     10125     10124     10127     10128     10125     10124     10127     10129
     10125     10124     10127     10130     10126     10124     10127     10128
     10126     10124     10127     10129     10126     10124     10127     10130
     10128     10127     10130     10131     10128     10127     10130     10132
     10128     10127     10130     10133     10129     10127     10130     10131
     10129     10127     10130     10132     10129     10127     10130     10133
     10134     10137     10140     10141     10134     10137     10140     10142
     10134     10137     10140     10143     10135     10134     10137     10138
     10135     10134     10137     10139     10135     10134     10137     10140
     10136     10134     10137     10138     10136     10134     10137     10139
     10136     10134     10137     10140     10137     10140     10143     10144
     10137     10140     10143     10145     10137     10140     10143     10146
     10138     10137     10140     10141     10138     10137     10140     10142
     10138     10137     10140     10143     10139     10137     10140     10141
     10139     10137     10140     10142     10139     10137     10140     10143
     10140     10143     10146     10147     10140     10143     10146     10148
     10140     10143     10146     10149     10141     10140     10143     10144
     10141     10140     10143     10145     10141     10140     10143     10146
     10142     10140     10143     10144     10142     10140     10143     10145
     10142     10140     10143     10146     10143     10146     10149     10150
     10143     10146     10149     10151     10143     10146     10149     10152
     10144     10143     10146     10147     10144     10143     10146     10148
     10144     10143     10146     10149     10145     10143     10146     10147
     10145     10143     10146     10148     10145     10143     10146     10149
     10146     10149     10152     10153     10146     10149     10152     10154
     10146     10149     10152     10155     10147     10146     10149     10150
     10147     10146     10149     10151     10147     10146     10149     10152
     10148     10146     10149     10150     10148     10146     10149     10151
     10148     10146     10149     10152     10149     10152     10155     10156
     10149     10152     10155     10157     10149     10152     10155     10158
     10150     10149     10152     10153     10150     10149     10152     10154
     10150     10149     10152     10155     10151     10149     10152     10153
     10151     10149     10152     10154     10151     10149     10152     10155
     10152     10155     10158     10159     10152     10155     10158     10160
     10152     10155     10158     10161     10153     10152     10155     10156
     10153     10152     10155     10157     10153     10152     10155     10158
     10154     10152     10155     10156     10154     10152     10155     10157
     10154     10152     10155     10158     10155     10158     10161     10162
     10155     10158     10161     10163     10155     10158     10161     10164
     10156     10155     10158     10159     10156     10155     10158     10160
     10156     10155     10158     10161     10157     10155     10158     10159
     10157     10155     10158     10160     10157     10155     10158     10161
     10158     10161     10164     10165     10158     10161     10164     10166
     10158     10161     10164     10167     10159     10158     10161     10162
     10159     10158     10161     10163     10159     10158     10161     10164
     10160     10158     10161     10162     10160     10158     10161     10163
     10160     10158     10161     10164     10161     10164     10167     10168
     10161     10164     10167     10169     10161     10164     10167     10170
     10162     10161     10164     10165     10162     10161     10164     10166
     10162     10161     10164     10167     10163     10161     10164     10165
     10163     10161     10164     10166     10163     10161     10164     10167
     10164     10167     10170     10171     10164     10167     10170     10172
     10164     10167     10170     10173     10165     10164     10167     10168
     10165     10164     10167     10169     10165     10164     10167     10170
     10166     10164     10167     10168     10166     10164     10167     10169
     10166     10164     10167     10170     10167     10170     10173     10174
     10167     10170     10173     10175     10167     10170     10173     10176
     10168     10167     10170     10171     10168     10167     10170     10172
     10168     10167     10170     10173     10169     10167     10170     10171
     10169     10167     10170     10172     10169     10167     10170     10173
     10171     10170     10173     10174     10171     10170     10173     10175
     10171     10170     10173     10176     10172     10170     10173     10174
     10172     10170     10173     10175     10172     10170     10173     10176
     10177     10178     10193     10194     10177     10178     10193     10195
     10177     10178     10193     10199     10178     10177     10181     10182
     10178     10177     10181     10183     10178     10177     10181     10184
     10178     10177     10185     10186     10178     10177     10185     10187
     10178     10177     10185     10188     10178     10177     10189     10190
     10178     10177     10189     10191     10178     10177     10189     10192
     10178     10193     10199     10196     10179     10178     10177     10181
     10179     10178     10177     10185     10179     10178     10177     10189
     10179     10178     10193     10194     10179     10178     10193     10195
     10179     10178     10193     10199     10180     10178     10177     10181
     10180     10178     10177     10185     10180     10178     10177     10189
     10180     10178     10193     10194     10180     10178     10193     10195
     10180     10178     10193     10199     10181     10177     10178     10193
     10181     10177     10185     10186     10181     10177     10185     10187
     10181     10177     10185     10188     10181     10177     10189     10190
     10181     10177     10189     10191     10181     10177     10189     10192
     10182     10181     10177     10185     10182     10181     10177     10189
     10183     10181     10177     10185     10183     10181     10177     10189
     10184     10181     10177     10185     10184     10181     10177     10189
     10185     10177     10178     10193     10185     10177     10189     10190
     10185     10177     10189     10191     10185     10177     10189     10192
     10186     10185     10177     10189     10187     10185     10177     10189
     10188     10185     10177     10189     10189     10177     10178     10193
     10193     10199     10196     10197     10193     10199     10196     10198
     10193     10199     10196     10200     10194     10193     10199     10196
     10195     10193     10199     10196     10196     10200     10201     10202
     10196     10200     10201     10203     10196     10200     10201     10204
     10197     10196     10200     10201     10198     10196     10200     10201
     10199     10196     10200     10201     10200     10201     10204     10205
     10200     10201     10204     10206     10200     10201     10204     10212
     10201     10204     10206     10207     10201     10204     10212     10213
     10201     10204     10212     10214     10201     10204     10212     10215
     10202     10201     10204     10205     10202     10201     10204     10206
     10202     10201     10204     10212     10203     10201     10204     10205
     10203     10201     10204     10206     10203     10201     10204     10212
     10204     10206     10207     10208     10204     10206     10207     10209
     10204     10212     10215     10216     10205     10204     10206     10207
     10205     10204     10212     10213     10205     10204     10212     10214
     10205     10204     10212     10215     10206     10204     10212     10213
     10206     10204     10212     10214     10206     10204     10212     10215
     10206     10207     10209     10210     10206     10207     10209     10211
     10206     10207     10209     10221     10207     10206     10204     10212
     10207     10209     10221     10222     10207     10209     10221     10223
     10207     10209     10221     10224     10208     10207     10209     10210
     10208     10207     10209     10211     10208     10207     10209     10221
     10209     10221     10224     10225     10209     10221     10224     10226
     10209     10221     10224     10227     10210     10209     10221     10222
     10210     10209     10221     10223     10210     10209     10221     10224
     10211     10209     10221     10222     10211     10209     10221     10223
     10211     10209     10221     10224     10212     10215     10216     10217
     10212     10215     10216     10218     10213     10212     10215     10216
     10214     10212     10215     10216     10215     10216     10218     10219
     10215     10216     10218     10220     10215     10216     10218     10268
     10216     10218     10268     10269     10216     10218     10268     10270
     10216     10218     10268     10271     10217     10216     10218     10219
     10217     10216     10218     10220     10217     10216     10218     10268
     10218     10268     10271     10272     10218     10268     10271     10273
     10218     10268     10271     10274     10219     10218     10268     10269
     10219     10218     10268     10270     10219     10218     10268     10271
     10220     10218     10268     10269     10220     10218     10268     10270
     10220     10218     10268     10271     10221     10224     10227     10228
     10221     10224     10227     10229     10221     10224     10227     10230
     10222     10221     10224     10225     10222     10221     10224     10226
     10222     10221     10224     10227     10223     10221     10224     10225
     10223     10221     10224     10226     10223     10221     10224     10227
     10224     10227     10230     10231     10224     10227     10230     10232
     10224     10227     10230     10233     10225     10224     10227     10228
     10225     10224     10227     10229     10225     10224     10227     10230
     10226     10224     10227     10228     10226     10224     10227     10229
     10226     10224     10227     10230     10227     10230     10233     10234
     10227     10230     10233     10235     10227     10230     10233     10236
     10228     10227     10230     10231     10228     10227     10230     10232
     10228     10227     10230     10233     10229     10227     10230     10231
     10229     10227     10230     10232     10229     10227     10230     10233
     10230     10233     10236     10237     10230     10233     10236     10238
     10230     10233     10236     10239     10231     10230     10233     10234
     10231     10230     10233     10235     10231     10230     10233     10236
     10232     10230     10233     10234     10232     10230     10233     10235
     10232     10230     10233     10236     10233     10236     10239     10240
     10233     10236     10239     10241     10234     10233     10236     10237
     10234     10233     10236     10238     10234     10233     10236     10239
     10235     10233     10236     10237     10235     10233     10236     10238
     10235     10233     10236     10239     10236     10239     10241     10242
     10236     10239     10241     10243     10237     10236     10239     10240
     10237     10236     10239     10241     10238     10236     10239     10240
     10238     10236     10239     10241     10239     10241     10243     10244
     10239     10241     10243     10245     10239     10241     10243     10246
     10240     10239     10241     10242     10240     10239     10241     10243
     10241     10243     10246     10247     10241     10243     10246     10248
     10241     10243     10246     10249     10242     10241     10243     10244
     10242     10241     10243     10245     10242     10241     10243     10246
     10243     10246     10249     10250     10243     10246     10249     10251
     10243     10246     10249     10252     10244     10243     10246     10247
     10244     10243     10246     10248     10244     10243     10246     10249
     10245     10243     10246     10247     10245     10243     10246     10248
     10245     10243     10246     10249     10246     10249     10252     10253
     10246     10249     10252     10254     10246     10249     10252     10255
     10247     10246     10249     10250     10247     10246     10249     10251
     10247     10246     10249     10252     10248     10246     10249     10250
     10248     10246     10249     10251     10248     10246     10249     10252
     10249     10252     10255     10256     10249     10252     10255     10257
     10249     10252     10255     10258     10250     10249     10252     10253
     10250     10249     10252     10254     10250     10249     10252     10255
     10251     10249     10252     10253     10251     10249     10252     10254
     10251     10249     10252     10255     10252     10255     10258     10259
     10252     10255     10258     10260     10252     10255     10258     10261
     10253     10252     10255     10256     10253     10252     10255     10257
     10253     10252     10255     10258     10254     10252     10255     10256
     10254     10252     10255     10257     10254     10252     10255     10258
     10255     10258     10261     10262     10255     10258     10261     10263
     10255     10258     10261     10264     10256     10255     10258     10259
     10256     10255     10258     10260     10256     10255     10258     10261
     10257     10255     10258     10259     10257     10255     10258     10260
     10257     10255     10258     10261     10258     10261     10264     10265
     10258     10261     10264     10266     10258     10261     10264     10267
     10259     10258     10261     10262     10259     10258     10261     10263
     10259     10258     10261     10264     10260     10258     10261     10262
     10260     10258     10261     10263     10260     10258     10261     10264
     10262     10261     10264     10265     10262     10261     10264     10266
     10262     10261     10264     10267     10263     10261     10264     10265
     10263     10261     10264     10266     10263     10261     10264     10267
     10268     10271     10274     10275     10268     10271     10274     10276
     10268     10271     10274     10277     10269     10268     10271     10272
     10269     10268     10271     10273     10269     10268     10271     10274
     10270     10268     10271     10272     10270     10268     10271     10273
     10270     10268     10271     10274     10271     10274     10277     10278
     10271     10274     10277     10279     10271     10274     10277     10280
     10272     10271     10274     10275     10272     10271     10274     10276
     10272     10271     10274     10277     10273     10271     10274     10275
     10273     10271     10274     10276     10273     10271     10274     10277
     10274     10277     10280     10281     10274     10277     10280     10282
     10274     10277     10280     10283     10275     10274     10277     10278
     10275     10274     10277     10279     10275     10274     10277     10280
     10276     10274     10277     10278     10276     10274     10277     10279
     10276     10274     10277     10280     10277     10280     10283     10284
     10277     10280     10283     10285     10277     10280     10283     10286
     10278     10277     10280     10281     10278     10277     10280     10282
     10278     10277     10280     10283     10279     10277     10280     10281
     10279     10277     10280     10282     10279     10277     10280     10283
     10280     10283     10286     10287     10280     10283     10286     10288
     10280     10283     10286     10289     10281     10280     10283     10284
     10281     10280     10283     10285     10281     10280     10283     10286
     10282     10280     10283     10284     10282     10280     10283     10285
     10282     10280     10283     10286     10283     10286     10289     10290
     10283     10286     10289     10291     10283     10286     10289     10292
     10284     10283     10286     10287     10284     10283     10286     10288
     10284     10283     10286     10289     10285     10283     10286     10287
     10285     10283     10286     10288     10285     10283     10286     10289
     10286     10289     10292     10293     10286     10289     10292     10294
     10286     10289     10292     10295     10287     10286     10289     10290
     10287     10286     10289     10291     10287     10286     10289     10292
     10288     10286     10289     10290     10288     10286     10289     10291
     10288     10286     10289     10292     10289     10292     10295     10296
     10289     10292     10295     10297     10289     10292     10295     10298
     10290     10289     10292     10293     10290     10289     10292     10294
     10290     10289     10292     10295     10291     10289     10292     10293
     10291     10289     10292     10294     10291     10289     10292     10295
     10292     10295     10298     10299     10292     10295     10298     10300
     10292     10295     10298     10301     10293     10292     10295     10296
     10293     10292     10295     10297     10293     10292     10295     10298
     10294     10292     10295     10296     10294     10292     10295     10297
     10294     10292     10295     10298     10295     10298     10301     10302
     10295     10298     10301     10303     10295     10298     10301     10304
     10296     10295     10298     10299     10296     10295     10298     10300
     10296     10295     10298     10301     10297     10295     10298     10299
     10297     10295     10298     10300     10297     10295     10298     10301
     10298     10301     10304     10305     10298     10301     10304     10306
     10298     10301     10304     10307     10299     10298     10301     10302
     10299     10298     10301     10303     10299     10298     10301     10304
     10300     10298     10301     10302     10300     10298     10301     10303
     10300     10298     10301     10304     10301     10304     10307     10308
     10301     10304     10307     10309     10301     10304     10307     10310
     10302     10301     10304     10305     10302     10301     10304     10306
     10302     10301     10304     10307     10303     10301     10304     10305
     10303     10301     10304     10306     10303     10301     10304     10307
     10305     10304     10307     10308     10305     10304     10307     10309
     10305     10304     10307     10310     10306     10304     10307     10308
     10306     10304     10307     10309     10306     10304     10307     10310
     10311     10312     10327     10328     10311     10312     10327     10329
     10311     10312     10327     10333     10312     10311     10315     10316
     10312     10311     10315     10317     10312     10311     10315     10318
     10312     10311     10319     10320     10312     10311     10319     10321
     10312     10311     10319     10322     10312     10311     10323     10324
     10312     10311     10323     10325     10312     10311     10323     10326
     10312     10327     10333     10330     10313     10312     10311     10315
     10313     10312     10311     10319     10313     10312     10311     10323
     10313     10312     10327     10328     10313     10312     10327     10329
     10313     10312     10327     10333     10314     10312     10311     10315
     10314     10312     10311     10319     10314     10312     10311     10323
     10314     10312     10327     10328     10314     10312     10327     10329
     10314     10312     10327     10333     10315     10311     10312     10327
     10315     10311     10319     10320     10315     10311     10319     10321
     10315     10311     10319     10322     10315     10311     10323     10324
     10315     10311     10323     10325     10315     10311     10323     10326
     10316     10315     10311     10319     10316     10315     10311     10323
     10317     10315     10311     10319     10317     10315     10311     10323
     10318     10315     10311     10319     10318     10315     10311     10323
     10319     10311     10312     10327     10319     10311     10323     10324
     10319     10311     10323     10325     10319     10311     10323     10326
     10320     10319     10311     10323     10321     10319     10311     10323
     10322     10319     10311     10323     10323     10311     10312     10327
     10327     10333     10330     10331     10327     10333     10330     10332
     10327     10333     10330     10334     10328     10327     10333     10330
     10329     10327     10333     10330     10330     10334     10335     10336
     10330     10334     10335     10337     10330     10334     10335     10338
     10331     10330     10334     10335     10332     10330     10334     10335
     10333     10330     10334     10335     10334     10335     10338     10339
     10334     10335     10338     10340     10334     10335     10338     10346
     10335     10338     10340     10341     10335     10338     10346     10347
     10335     10338     10346     10348     10335     10338     10346     10349
     10336     10335     10338     10339     10336     10335     10338     10340
     10336     10335     10338     10346     10337     10335     10338     10339
     10337     10335     10338     10340     10337     10335     10338     10346
     10338     10340     10341     10342     10338     10340     10341     10343
     10338     10346     10349     10350     10339     10338     10340     10341
     10339     10338     10346     10347     10339     10338     10346     10348
     10339     10338     10346     10349     10340     10338     10346     10347
     10340     10338     10346     10348     10340     10338     10346     10349
     10340     10341     10343     10344     10340     10341     10343     10345
     10340     10341     10343     10355     10341     10340     10338     10346
     10341     10343     10355     10356     10341     10343     10355     10357
     10341     10343     10355     10358     10342     10341     10343     10344
     10342     10341     10343     10345     10342     10341     10343     10355
     10343     10355     10358     10359     10343     10355     10358     10360
     10343     10355     10358     10361     10344     10343     10355     10356
     10344     10343     10355     10357     10344     10343     10355     10358
     10345     10343     10355     10356     10345     10343     10355     10357
     10345     10343     10355     10358     10346     10349     10350     10351
     10346     10349     10350     10352     10347     10346     10349     10350
     10348     10346     10349     10350     10349     10350     10352     10353
     10349     10350     10352     10354     10349     10350     10352     10402
     10350     10352     10402     10403     10350     10352     10402     10404
     10350     10352     10402     10405     10351     10350     10352     10353
     10351     10350     10352     10354     10351     10350     10352     10402
     10352     10402     10405     10406     10352     10402     10405     10407
     10352     10402     10405     10408     10353     10352     10402     10403
     10353     10352     10402     10404     10353     10352     10402     10405
     10354     10352     10402     10403     10354     10352     10402     10404
     10354     10352     10402     10405     10355     10358     10361     10362
     10355     10358     10361     10363     10355     10358     10361     10364
     10356     10355     10358     10359     10356     10355     10358     10360
     10356     10355     10358     10361     10357     10355     10358     10359
     10357     10355     10358     10360     10357     10355     10358     10361
     10358     10361     10364     10365     10358     10361     10364     10366
     10358     10361     10364     10367     10359     10358     10361     10362
     10359     10358     10361     10363     10359     10358     10361     10364
     10360     10358     10361     10362     10360     10358     10361     10363
     10360     10358     10361     10364     10361     10364     10367     10368
     10361     10364     10367     10369     10361     10364     10367     10370
     10362     10361     10364     10365     10362     10361     10364     10366
     10362     10361     10364     10367     10363     10361     10364     10365
     10363     10361     10364     10366     10363     10361     10364     10367
     10364     10367     10370     10371     10364     10367     10370     10372
     10364     10367     10370     10373     10365     10364     10367     10368
     10365     10364     10367     10369     10365     10364     10367     10370
     10366     10364     10367     10368     10366     10364     10367     10369
     10366     10364     10367     10370     10367     10370     10373     10374
     10367     10370     10373     10375     10368     10367     10370     10371
     10368     10367     10370     10372     10368     10367     10370     10373
     10369     10367     10370     10371     10369     10367     10370     10372
     10369     10367     10370     10373     10370     10373     10375     10376
     10370     10373     10375     10377     10371     10370     10373     10374
     10371     10370     10373     10375     10372     10370     10373     10374
     10372     10370     10373     10375     10373     10375     10377     10378
     10373     10375     10377     10379     10373     10375     10377     10380
     10374     10373     10375     10376     10374     10373     10375     10377
     10375     10377     10380     10381     10375     10377     10380     10382
     10375     10377     10380     10383     10376     10375     10377     10378
     10376     10375     10377     10379     10376     10375     10377     10380
     10377     10380     10383     10384     10377     10380     10383     10385
     10377     10380     10383     10386     10378     10377     10380     10381
     10378     10377     10380     10382     10378     10377     10380     10383
     10379     10377     10380     10381     10379     10377     10380     10382
     10379     10377     10380     10383     10380     10383     10386     10387
     10380     10383     10386     10388     10380     10383     10386     10389
     10381     10380     10383     10384     10381     10380     10383     10385
     10381     10380     10383     10386     10382     10380     10383     10384
     10382     10380     10383     10385     10382     10380     10383     10386
     10383     10386     10389     10390     10383     10386     10389     10391
     10383     10386     10389     10392     10384     10383     10386     10387
     10384     10383     10386     10388     10384     10383     10386     10389
     10385     10383     10386     10387     10385     10383     10386     10388
     10385     10383     10386     10389     10386     10389     10392     10393
     10386     10389     10392     10394     10386     10389     10392     10395
     10387     10386     10389     10390     10387     10386     10389     10391
     10387     10386     10389     10392     10388     10386     10389     10390
     10388     10386     10389     10391     10388     10386     10389     10392
     10389     10392     10395     10396     10389     10392     10395     10397
     10389     10392     10395     10398     10390     10389     10392     10393
     10390     10389     10392     10394     10390     10389     10392     10395
     10391     10389     10392     10393     10391     10389     10392     10394
     10391     10389     10392     10395     10392     10395     10398     10399
     10392     10395     10398     10400     10392     10395     10398     10401
     10393     10392     10395     10396     10393     10392     10395     10397
     10393     10392     10395     10398     10394     10392     10395     10396
     10394     10392     10395     10397     10394     10392     10395     10398
     10396     10395     10398     10399     10396     10395     10398     10400
     10396     10395     10398     10401     10397     10395     10398     10399
     10397     10395     10398     10400     10397     10395     10398     10401
     10402     10405     10408     10409     10402     10405     10408     10410
     10402     10405     10408     10411     10403     10402     10405     10406
     10403     10402     10405     10407     10403     10402     10405     10408
     10404     10402     10405     10406     10404     10402     10405     10407
     10404     10402     10405     10408     10405     10408     10411     10412
     10405     10408     10411     10413     10405     10408     10411     10414
     10406     10405     10408     10409     10406     10405     10408     10410
     10406     10405     10408     10411     10407     10405     10408     10409
     10407     10405     10408     10410     10407     10405     10408     10411
     10408     10411     10414     10415     10408     10411     10414     10416
     10408     10411     10414     10417     10409     10408     10411     10412
     10409     10408     10411     10413     10409     10408     10411     10414
     10410     10408     10411     10412     10410     10408     10411     10413
     10410     10408     10411     10414     10411     10414     10417     10418
     10411     10414     10417     10419     10411     10414     10417     10420
     10412     10411     10414     10415     10412     10411     10414     10416
     10412     10411     10414     10417     10413     10411     10414     10415
     10413     10411     10414     10416     10413     10411     10414     10417
     10414     10417     10420     10421     10414     10417     10420     10422
     10414     10417     10420     10423     10415     10414     10417     10418
     10415     10414     10417     10419     10415     10414     10417     10420
     10416     10414     10417     10418     10416     10414     10417     10419
     10416     10414     10417     10420     10417     10420     10423     10424
     10417     10420     10423     10425     10417     10420     10423     10426
     10418     10417     10420     10421     10418     10417     10420     10422
     10418     10417     10420     10423     10419     10417     10420     10421
     10419     10417     10420     10422     10419     10417     10420     10423
     10420     10423     10426     10427     10420     10423     10426     10428
     10420     10423     10426     10429     10421     10420     10423     10424
     10421     10420     10423     10425     10421     10420     10423     10426
     10422     10420     10423     10424     10422     10420     10423     10425
     10422     10420     10423     10426     10423     10426     10429     10430
     10423     10426     10429     10431     10423     10426     10429     10432
     10424     10423     10426     10427     10424     10423     10426     10428
     10424     10423     10426     10429     10425     10423     10426     10427
     10425     10423     10426     10428     10425     10423     10426     10429
     10426     10429     10432     10433     10426     10429     10432     10434
     10426     10429     10432     10435     10427     10426     10429     10430
     10427     10426     10429     10431     10427     10426     10429     10432
     10428     10426     10429     10430     10428     10426     10429     10431
     10428     10426     10429     10432     10429     10432     10435     10436
     10429     10432     10435     10437     10429     10432     10435     10438
     10430     10429     10432     10433     10430     10429     10432     10434
     10430     10429     10432     10435     10431     10429     10432     10433
     10431     10429     10432     10434     10431     10429     10432     10435
     10432     10435     10438     10439     10432     10435     10438     10440
     10432     10435     10438     10441     10433     10432     10435     10436
     10433     10432     10435     10437     10433     10432     10435     10438
     10434     10432     10435     10436     10434     10432     10435     10437
     10434     10432     10435     10438     10435     10438     10441     10442
     10435     10438     10441     10443     10435     10438     10441     10444
     10436     10435     10438     10439     10436     10435     10438     10440
     10436     10435     10438     10441     10437     10435     10438     10439
     10437     10435     10438     10440     10437     10435     10438     10441
     10439     10438     10441     10442     10439     10438     10441     10443
     10439     10438     10441     10444     10440     10438     10441     10442
     10440     10438     10441     10443     10440     10438     10441     10444
     10445     10446     10461     10462     10445     10446     10461     10463
     10445     10446     10461     10467     10446     10445     10449     10450
     10446     10445     10449     10451     10446     10445     10449     10452
     10446     10445     10453     10454     10446     10445     10453     10455
     10446     10445     10453     10456     10446     10445     10457     10458
     10446     10445     10457     10459     10446     10445     10457     10460
     10446     10461     10467     10464     10447     10446     10445     10449
     10447     10446     10445     10453     10447     10446     10445     10457
     10447     10446     10461     10462     10447     10446     10461     10463
     10447     10446     10461     10467     10448     10446     10445     10449
     10448     10446     10445     10453     10448     10446     10445     10457
     10448     10446     10461     10462     10448     10446     10461     10463
     10448     10446     10461     10467     10449     10445     10446     10461
     10449     10445     10453     10454     10449     10445     10453     10455
     10449     10445     10453     10456     10449     10445     10457     10458
     10449     10445     10457     10459     10449     10445     10457     10460
     10450     10449     10445     10453     10450     10449     10445     10457
     10451     10449     10445     10453     10451     10449     10445     10457
     10452     10449     10445     10453     10452     10449     10445     10457
     10453     10445     10446     10461     10453     10445     10457     10458
     10453     10445     10457     10459     10453     10445     10457     10460
     10454     10453     10445     10457     10455     10453     10445     10457
     10456     10453     10445     10457     10457     10445     10446     10461
     10461     10467     10464     10465     10461     10467     10464     10466
     10461     10467     10464     10468     10462     10461     10467     10464
     10463     10461     10467     10464     10464     10468     10469     10470
     10464     10468     10469     10471     10464     10468     10469     10472
     10465     10464     10468     10469     10466     10464     10468     10469
     10467     10464     10468     10469     10468     10469     10472     10473
     10468     10469     10472     10474     10468     10469     10472     10480
     10469     10472     10474     10475     10469     10472     10480     10481
     10469     10472     10480     10482     10469     10472     10480     10483
     10470     10469     10472     10473     10470     10469     10472     10474
     10470     10469     10472     10480     10471     10469     10472     10473
     10471     10469     10472     10474     10471     10469     10472     10480
     10472     10474     10475     10476     10472     10474     10475     10477
     10472     10480     10483     10484     10473     10472     10474     10475
     10473     10472     10480     10481     10473     10472     10480     10482
     10473     10472     10480     10483     10474     10472     10480     10481
     10474     10472     10480     10482     10474     10472     10480     10483
     10474     10475     10477     10478     10474     10475     10477     10479
     10474     10475     10477     10489     10475     10474     10472     10480
     10475     10477     10489     10490     10475     10477     10489     10491
     10475     10477     10489     10492     10476     10475     10477     10478
     10476     10475     10477     10479     10476     10475     10477     10489
     10477     10489     10492     10493     10477     10489     10492     10494
     10477     10489     10492     10495     10478     10477     10489     10490
     10478     10477     10489     10491     10478     10477     10489     10492
     10479     10477     10489     10490     10479     10477     10489     10491
     10479     10477     10489     10492     10480     10483     10484     10485
     10480     10483     10484     10486     10481     10480     10483     10484
     10482     10480     10483     10484     10483     10484     10486     10487
     10483     10484     10486     10488     10483     10484     10486     10536
     10484     10486     10536     10537     10484     10486     10536     10538
     10484     10486     10536     10539     10485     10484     10486     10487
     10485     10484     10486     10488     10485     10484     10486     10536
     10486     10536     10539     10540     10486     10536     10539     10541
     10486     10536     10539     10542     10487     10486     10536     10537
     10487     10486     10536     10538     10487     10486     10536     10539
     10488     10486     10536     10537     10488     10486     10536     10538
     10488     10486     10536     10539     10489     10492     10495     10496
     10489     10492     10495     10497     10489     10492     10495     10498
     10490     10489     10492     10493     10490     10489     10492     10494
     10490     10489     10492     10495     10491     10489     10492     10493
     10491     10489     10492     10494     10491     10489     10492     10495
     10492     10495     10498     10499     10492     10495     10498     10500
     10492     10495     10498     10501     10493     10492     10495     10496
     10493     10492     10495     10497     10493     10492     10495     10498
     10494     10492     10495     10496     10494     10492     10495     10497
     10494     10492     10495     10498     10495     10498     10501     10502
     10495     10498     10501     10503     10495     10498     10501     10504
     10496     10495     10498     10499     10496     10495     10498     10500
     10496     10495     10498     10501     10497     10495     10498     10499
     10497     10495     10498     10500     10497     10495     10498     10501
     10498     10501     10504     10505     10498     10501     10504     10506
     10498     10501     10504     10507     10499     10498     10501     10502
     10499     10498     10501     10503     10499     10498     10501     10504
     10500     10498     10501     10502     10500     10498     10501     10503
     10500     10498     10501     10504     10501     10504     10507     10508
     10501     10504     10507     10509     10502     10501     10504     10505
     10502     10501     10504     10506     10502     10501     10504     10507
     10503     10501     10504     10505     10503     10501     10504     10506
     10503     10501     10504     10507     10504     10507     10509     10510
     10504     10507     10509     10511     10505     10504     10507     10508
     10505     10504     10507     10509     10506     10504     10507     10508
     10506     10504     10507     10509     10507     10509     10511     10512
     10507     10509     10511     10513     10507     10509     10511     10514
     10508     10507     10509     10510     10508     10507     10509     10511
     10509     10511     10514     10515     10509     10511     10514     10516
     10509     10511     10514     10517     10510     10509     10511     10512
     10510     10509     10511     10513     10510     10509     10511     10514
     10511     10514     10517     10518     10511     10514     10517     10519
     10511     10514     10517     10520     10512     10511     10514     10515
     10512     10511     10514     10516     10512     10511     10514     10517
     10513     10511     10514     10515     10513     10511     10514     10516
     10513     10511     10514     10517     10514     10517     10520     10521
     10514     10517     10520     10522     10514     10517     10520     10523
     10515     10514     10517     10518     10515     10514     10517     10519
     10515     10514     10517     10520     10516     10514     10517     10518
     10516     10514     10517     10519     10516     10514     10517     10520
     10517     10520     10523     10524     10517     10520     10523     10525
     10517     10520     10523     10526     10518     10517     10520     10521
     10518     10517     10520     10522     10518     10517     10520     10523
     10519     10517     10520     10521     10519     10517     10520     10522
     10519     10517     10520     10523     10520     10523     10526     10527
     10520     10523     10526     10528     10520     10523     10526     10529
     10521     10520     10523     10524     10521     10520     10523     10525
     10521     10520     10523     10526     10522     10520     10523     10524
     10522     10520     10523     10525     10522     10520     10523     10526
     10523     10526     10529     10530     10523     10526     10529     10531
     10523     10526     10529     10532     10524     10523     10526     10527
     10524     10523     10526     10528     10524     10523     10526     10529
     10525     10523     10526     10527     10525     10523     10526     10528
     10525     10523     10526     10529     10526     10529     10532     10533
     10526     10529     10532     10534     10526     10529     10532     10535
     10527     10526     10529     10530     10527     10526     10529     10531
     10527     10526     10529     10532     10528     10526     10529     10530
     10528     10526     10529     10531     10528     10526     10529     10532
     10530     10529     10532     10533     10530     10529     10532     10534
     10530     10529     10532     10535     10531     10529     10532     10533
     10531     10529     10532     10534     10531     10529     10532     10535
     10536     10539     10542     10543     10536     10539     10542     10544
     10536     10539     10542     10545     10537     10536     10539     10540
     10537     10536     10539     10541     10537     10536     10539     10542
     10538     10536     10539     10540     10538     10536     10539     10541
     10538     10536     10539     10542     10539     10542     10545     10546
     10539     10542     10545     10547     10539     10542     10545     10548
     10540     10539     10542     10543     10540     10539     10542     10544
     10540     10539     10542     10545     10541     10539     10542     10543
     10541     10539     10542     10544     10541     10539     10542     10545
     10542     10545     10548     10549     10542     10545     10548     10550
     10542     10545     10548     10551     10543     10542     10545     10546
     10543     10542     10545     10547     10543     10542     10545     10548
     10544     10542     10545     10546     10544     10542     10545     10547
     10544     10542     10545     10548     10545     10548     10551     10552
     10545     10548     10551     10553     10545     10548     10551     10554
     10546     10545     10548     10549     10546     10545     10548     10550
     10546     10545     10548     10551     10547     10545     10548     10549
     10547     10545     10548     10550     10547     10545     10548     10551
     10548     10551     10554     10555     10548     10551     10554     10556
     10548     10551     10554     10557     10549     10548     10551     10552
     10549     10548     10551     10553     10549     10548     10551     10554
     10550     10548     10551     10552     10550     10548     10551     10553
     10550     10548     10551     10554     10551     10554     10557     10558
     10551     10554     10557     10559     10551     10554     10557     10560
     10552     10551     10554     10555     10552     10551     10554     10556
     10552     10551     10554     10557     10553     10551     10554     10555
     10553     10551     10554     10556     10553     10551     10554     10557
     10554     10557     10560     10561     10554     10557     10560     10562
     10554     10557     10560     10563     10555     10554     10557     10558
     10555     10554     10557     10559     10555     10554     10557     10560
     10556     10554     10557     10558     10556     10554     10557     10559
     10556     10554     10557     10560     10557     10560     10563     10564
     10557     10560     10563     10565     10557     10560     10563     10566
     10558     10557     10560     10561     10558     10557     10560     10562
     10558     10557     10560     10563     10559     10557     10560     10561
     10559     10557     10560     10562     10559     10557     10560     10563
     10560     10563     10566     10567     10560     10563     10566     10568
     10560     10563     10566     10569     10561     10560     10563     10564
     10561     10560     10563     10565     10561     10560     10563     10566
     10562     10560     10563     10564     10562     10560     10563     10565
     10562     10560     10563     10566     10563     10566     10569     10570
     10563     10566     10569     10571     10563     10566     10569     10572
     10564     10563     10566     10567     10564     10563     10566     10568
     10564     10563     10566     10569     10565     10563     10566     10567
     10565     10563     10566     10568     10565     10563     10566     10569
     10566     10569     10572     10573     10566     10569     10572     10574
     10566     10569     10572     10575     10567     10566     10569     10570
     10567     10566     10569     10571     10567     10566     10569     10572
     10568     10566     10569     10570     10568     10566     10569     10571
     10568     10566     10569     10572     10569     10572     10575     10576
     10569     10572     10575     10577     10569     10572     10575     10578
     10570     10569     10572     10573     10570     10569     10572     10574
     10570     10569     10572     10575     10571     10569     10572     10573
     10571     10569     10572     10574     10571     10569     10572     10575
     10573     10572     10575     10576     10573     10572     10575     10577
     10573     10572     10575     10578     10574     10572     10575     10576
     10574     10572     10575     10577     10574     10572     10575     10578
     10579     10580     10595     10596     10579     10580     10595     10597
     10579     10580     10595     10601     10580     10579     10583     10584
     10580     10579     10583     10585     10580     10579     10583     10586
     10580     10579     10587     10588     10580     10579     10587     10589
     10580     10579     10587     10590     10580     10579     10591     10592
     10580     10579     10591     10593     10580     10579     10591     10594
     10580     10595     10601     10598     10581     10580     10579     10583
     10581     10580     10579     10587     10581     10580     10579     10591
     10581     10580     10595     10596     10581     10580     10595     10597
     10581     10580     10595     10601     10582     10580     10579     10583
     10582     10580     10579     10587     10582     10580     10579     10591
     10582     10580     10595     10596     10582     10580     10595     10597
     10582     10580     10595     10601     10583     10579     10580     10595
     10583     10579     10587     10588     10583     10579     10587     10589
     10583     10579     10587     10590     10583     10579     10591     10592
     10583     10579     10591     10593     10583     10579     10591     10594
     10584     10583     10579     10587     10584     10583     10579     10591
     10585     10583     10579     10587     10585     10583     10579     10591
     10586     10583     10579     10587     10586     10583     10579     10591
     10587     10579     10580     10595     10587     10579     10591     10592
     10587     10579     10591     10593     10587     10579     10591     10594
     10588     10587     10579     10591     10589     10587     10579     10591
     10590     10587     10579     10591     10591     10579     10580     10595
     10595     10601     10598     10599     10595     10601     10598     10600
     10595     10601     10598     10602     10596     10595     10601     10598
     10597     10595     10601     10598     10598     10602     10603     10604
     10598     10602     10603     10605     10598     10602     10603     10606
     10599     10598     10602     10603     10600     10598     10602     10603
     10601     10598     10602     10603     10602     10603     10606     10607
     10602     10603     10606     10608     10602     10603     10606     10614
     10603     10606     10608     10609     10603     10606     10614     10615
     10603     10606     10614     10616     10603     10606     10614     10617
     10604     10603     10606     10607     10604     10603     10606     10608
     10604     10603     10606     10614     10605     10603     10606     10607
     10605     10603     10606     10608     10605     10603     10606     10614
     10606     10608     10609     10610     10606     10608     10609     10611
     10606     10614     10617     10618     10607     10606     10608     10609
     10607     10606     10614     10615     10607     10606     10614     10616
     10607     10606     10614     10617     10608     10606     10614     10615
     10608     10606     10614     10616     10608     10606     10614     10617
     10608     10609     10611     10612     10608     10609     10611     10613
     10608     10609     10611     10623     10609     10608     10606     10614
     10609     10611     10623     10624     10609     10611     10623     10625
     10609     10611     10623     10626     10610     10609     10611     10612
     10610     10609     10611     10613     10610     10609     10611     10623
     10611     10623     10626     10627     10611     10623     10626     10628
     10611     10623     10626     10629     10612     10611     10623     10624
     10612     10611     10623     10625     10612     10611     10623     10626
     10613     10611     10623     10624     10613     10611     10623     10625
     10613     10611     10623     10626     10614     10617     10618     10619
     10614     10617     10618     10620     10615     10614     10617     10618
     10616     10614     10617     10618     10617     10618     10620     10621
     10617     10618     10620     10622     10617     10618     10620     10670
     10618     10620     10670     10671     10618     10620     10670     10672
     10618     10620     10670     10673     10619     10618     10620     10621
     10619     10618     10620     10622     10619     10618     10620     10670
     10620     10670     10673     10674     10620     10670     10673     10675
     10620     10670     10673     10676     10621     10620     10670     10671
     10621     10620     10670     10672     10621     10620     10670     10673
     10622     10620     10670     10671     10622     10620     10670     10672
     10622     10620     10670     10673     10623     10626     10629     10630
     10623     10626     10629     10631     10623     10626     10629     10632
     10624     10623     10626     10627     10624     10623     10626     10628
     10624     10623     10626     10629     10625     10623     10626     10627
     10625     10623     10626     10628     10625     10623     10626     10629
     10626     10629     10632     10633     10626     10629     10632     10634
     10626     10629     10632     10635     10627     10626     10629     10630
     10627     10626     10629     10631     10627     10626     10629     10632
     10628     10626     10629     10630     10628     10626     10629     10631
     10628     10626     10629     10632     10629     10632     10635     10636
     10629     10632     10635     10637     10629     10632     10635     10638
     10630     10629     10632     10633     10630     10629     10632     10634
     10630     10629     10632     10635     10631     10629     10632     10633
     10631     10629     10632     10634     10631     10629     10632     10635
     10632     10635     10638     10639     10632     10635     10638     10640
     10632     10635     10638     10641     10633     10632     10635     10636
     10633     10632     10635     10637     10633     10632     10635     10638
     10634     10632     10635     10636     10634     10632     10635     10637
     10634     10632     10635     10638     10635     10638     10641     10642
     10635     10638     10641     10643     10636     10635     10638     10639
     10636     10635     10638     10640     10636     10635     10638     10641
     10637     10635     10638     10639     10637     10635     10638     10640
     10637     10635     10638     10641     10638     10641     10643     10644
     10638     10641     10643     10645     10639     10638     10641     10642
     10639     10638     10641     10643     10640     10638     10641     10642
     10640     10638     10641     10643     10641     10643     10645     10646
     10641     10643     10645     10647     10641     10643     10645     10648
     10642     10641     10643     10644     10642     10641     10643     10645
     10643     10645     10648     10649     10643     10645     10648     10650
     10643     10645     10648     10651     10644     10643     10645     10646
     10644     10643     10645     10647     10644     10643     10645     10648
     10645     10648     10651     10652     10645     10648     10651     10653
     10645     10648     10651     10654     10646     10645     10648     10649
     10646     10645     10648     10650     10646     10645     10648     10651
     10647     10645     10648     10649     10647     10645     10648     10650
     10647     10645     10648     10651     10648     10651     10654     10655
     10648     10651     10654     10656     10648     10651     10654     10657
     10649     10648     10651     10652     10649     10648     10651     10653
     10649     10648     10651     10654     10650     10648     10651     10652
     10650     10648     10651     10653     10650     10648     10651     10654
     10651     10654     10657     10658     10651     10654     10657     10659
     10651     10654     10657     10660     10652     10651     10654     10655
     10652     10651     10654     10656     10652     10651     10654     10657
     10653     10651     10654     10655     10653     10651     10654     10656
     10653     10651     10654     10657     10654     10657     10660     10661
     10654     10657     10660     10662     10654     10657     10660     10663
     10655     10654     10657     10658     10655     10654     10657     10659
     10655     10654     10657     10660     10656     10654     10657     10658
     10656     10654     10657     10659     10656     10654     10657     10660
     10657     10660     10663     10664     10657     10660     10663     10665
     10657     10660     10663     10666     10658     10657     10660     10661
     10658     10657     10660     10662     10658     10657     10660     10663
     10659     10657     10660     10661     10659     10657     10660     10662
     10659     10657     10660     10663     10660     10663     10666     10667
     10660     10663     10666     10668     10660     10663     10666     10669
     10661     10660     10663     10664     10661     10660     10663     10665
     10661     10660     10663     10666     10662     10660     10663     10664
     10662     10660     10663     10665     10662     10660     10663     10666
     10664     10663     10666     10667     10664     10663     10666     10668
     10664     10663     10666     10669     10665     10663     10666     10667
     10665     10663     10666     10668     10665     10663     10666     10669
     10670     10673     10676     10677     10670     10673     10676     10678
     10670     10673     10676     10679     10671     10670     10673     10674
     10671     10670     10673     10675     10671     10670     10673     10676
     10672     10670     10673     10674     10672     10670     10673     10675
     10672     10670     10673     10676     10673     10676     10679     10680
     10673     10676     10679     10681     10673     10676     10679     10682
     10674     10673     10676     10677     10674     10673     10676     10678
     10674     10673     10676     10679     10675     10673     10676     10677
     10675     10673     10676     10678     10675     10673     10676     10679
     10676     10679     10682     10683     10676     10679     10682     10684
     10676     10679     10682     10685     10677     10676     10679     10680
     10677     10676     10679     10681     10677     10676     10679     10682
     10678     10676     10679     10680     10678     10676     10679     10681
     10678     10676     10679     10682     10679     10682     10685     10686
     10679     10682     10685     10687     10679     10682     10685     10688
     10680     10679     10682     10683     10680     10679     10682     10684
     10680     10679     10682     10685     10681     10679     10682     10683
     10681     10679     10682     10684     10681     10679     10682     10685
     10682     10685     10688     10689     10682     10685     10688     10690
     10682     10685     10688     10691     10683     10682     10685     10686
     10683     10682     10685     10687     10683     10682     10685     10688
     10684     10682     10685     10686     10684     10682     10685     10687
     10684     10682     10685     10688     10685     10688     10691     10692
     10685     10688     10691     10693     10685     10688     10691     10694
     10686     10685     10688     10689     10686     10685     10688     10690
     10686     10685     10688     10691     10687     10685     10688     10689
     10687     10685     10688     10690     10687     10685     10688     10691
     10688     10691     10694     10695     10688     10691     10694     10696
     10688     10691     10694     10697     10689     10688     10691     10692
     10689     10688     10691     10693     10689     10688     10691     10694
     10690     10688     10691     10692     10690     10688     10691     10693
     10690     10688     10691     10694     10691     10694     10697     10698
     10691     10694     10697     10699     10691     10694     10697     10700
     10692     10691     10694     10695     10692     10691     10694     10696
     10692     10691     10694     10697     10693     10691     10694     10695
     10693     10691     10694     10696     10693     10691     10694     10697
     10694     10697     10700     10701     10694     10697     10700     10702
     10694     10697     10700     10703     10695     10694     10697     10698
     10695     10694     10697     10699     10695     10694     10697     10700
     10696     10694     10697     10698     10696     10694     10697     10699
     10696     10694     10697     10700     10697     10700     10703     10704
     10697     10700     10703     10705     10697     10700     10703     10706
     10698     10697     10700     10701     10698     10697     10700     10702
     10698     10697     10700     10703     10699     10697     10700     10701
     10699     10697     10700     10702     10699     10697     10700     10703
     10700     10703     10706     10707     10700     10703     10706     10708
     10700     10703     10706     10709     10701     10700     10703     10704
     10701     10700     10703     10705     10701     10700     10703     10706
     10702     10700     10703     10704     10702     10700     10703     10705
     10702     10700     10703     10706     10703     10706     10709     10710
     10703     10706     10709     10711     10703     10706     10709     10712
     10704     10703     10706     10707     10704     10703     10706     10708
     10704     10703     10706     10709     10705     10703     10706     10707
     10705     10703     10706     10708     10705     10703     10706     10709
     10707     10706     10709     10710     10707     10706     10709     10711
     10707     10706     10709     10712     10708     10706     10709     10710
     10708     10706     10709     10711     10708     10706     10709     10712
     10713     10714     10729     10730     10713     10714     10729     10731
     10713     10714     10729     10735     10714     10713     10717     10718
     10714     10713     10717     10719     10714     10713     10717     10720
     10714     10713     10721     10722     10714     10713     10721     10723
     10714     10713     10721     10724     10714     10713     10725     10726
     10714     10713     10725     10727     10714     10713     10725     10728
     10714     10729     10735     10732     10715     10714     10713     10717
     10715     10714     10713     10721     10715     10714     10713     10725
     10715     10714     10729     10730     10715     10714     10729     10731
     10715     10714     10729     10735     10716     10714     10713     10717
     10716     10714     10713     10721     10716     10714     10713     10725
     10716     10714     10729     10730     10716     10714     10729     10731
     10716     10714     10729     10735     10717     10713     10714     10729
     10717     10713     10721     10722     10717     10713     10721     10723
     10717     10713     10721     10724     10717     10713     10725     10726
     10717     10713     10725     10727     10717     10713     10725     10728
     10718     10717     10713     10721     10718     10717     10713     10725
     10719     10717     10713     10721     10719     10717     10713     10725
     10720     10717     10713     10721     10720     10717     10713     10725
     10721     10713     10714     10729     10721     10713     10725     10726
     10721     10713     10725     10727     10721     10713     10725     10728
     10722     10721     10713     10725     10723     10721     10713     10725
     10724     10721     10713     10725     10725     10713     10714     10729
     10729     10735     10732     10733     10729     10735     10732     10734
     10729     10735     10732     10736     10730     10729     10735     10732
     10731     10729     10735     10732     10732     10736     10737     10738
     10732     10736     10737     10739     10732     10736     10737     10740
     10733     10732     10736     10737     10734     10732     10736     10737
     10735     10732     10736     10737     10736     10737     10740     10741
     10736     10737     10740     10742     10736     10737     10740     10748
     10737     10740     10742     10743     10737     10740     10748     10749
     10737     10740     10748     10750     10737     10740     10748     10751
     10738     10737     10740     10741     10738     10737     10740     10742
     10738     10737     10740     10748     10739     10737     10740     10741
     10739     10737     10740     10742     10739     10737     10740     10748
     10740     10742     10743     10744     10740     10742     10743     10745
     10740     10748     10751     10752     10741     10740     10742     10743
     10741     10740     10748     10749     10741     10740     10748     10750
     10741     10740     10748     10751     10742     10740     10748     10749
     10742     10740     10748     10750     10742     10740     10748     10751
     10742     10743     10745     10746     10742     10743     10745     10747
     10742     10743     10745     10757     10743     10742     10740     10748
     10743     10745     10757     10758     10743     10745     10757     10759
     10743     10745     10757     10760     10744     10743     10745     10746
     10744     10743     10745     10747     10744     10743     10745     10757
     10745     10757     10760     10761     10745     10757     10760     10762
     10745     10757     10760     10763     10746     10745     10757     10758
     10746     10745     10757     10759     10746     10745     10757     10760
     10747     10745     10757     10758     10747     10745     10757     10759
     10747     10745     10757     10760     10748     10751     10752     10753
     10748     10751     10752     10754     10749     10748     10751     10752
     10750     10748     10751     10752     10751     10752     10754     10755
     10751     10752     10754     10756     10751     10752     10754     10804
     10752     10754     10804     10805     10752     10754     10804     10806
     10752     10754     10804     10807     10753     10752     10754     10755
     10753     10752     10754     10756     10753     10752     10754     10804
     10754     10804     10807     10808     10754     10804     10807     10809
     10754     10804     10807     10810     10755     10754     10804     10805
     10755     10754     10804     10806     10755     10754     10804     10807
     10756     10754     10804     10805     10756     10754     10804     10806
     10756     10754     10804     10807     10757     10760     10763     10764
     10757     10760     10763     10765     10757     10760     10763     10766
     10758     10757     10760     10761     10758     10757     10760     10762
     10758     10757     10760     10763     10759     10757     10760     10761
     10759     10757     10760     10762     10759     10757     10760     10763
     10760     10763     10766     10767     10760     10763     10766     10768
     10760     10763     10766     10769     10761     10760     10763     10764
     10761     10760     10763     10765     10761     10760     10763     10766
     10762     10760     10763     10764     10762     10760     10763     10765
     10762     10760     10763     10766     10763     10766     10769     10770
     10763     10766     10769     10771     10763     10766     10769     10772
     10764     10763     10766     10767     10764     10763     10766     10768
     10764     10763     10766     10769     10765     10763     10766     10767
     10765     10763     10766     10768     10765     10763     10766     10769
     10766     10769     10772     10773     10766     10769     10772     10774
     10766     10769     10772     10775     10767     10766     10769     10770
     10767     10766     10769     10771     10767     10766     10769     10772
     10768     10766     10769     10770     10768     10766     10769     10771
     10768     10766     10769     10772     10769     10772     10775     10776
     10769     10772     10775     10777     10770     10769     10772     10773
     10770     10769     10772     10774     10770     10769     10772     10775
     10771     10769     10772     10773     10771     10769     10772     10774
     10771     10769     10772     10775     10772     10775     10777     10778
     10772     10775     10777     10779     10773     10772     10775     10776
     10773     10772     10775     10777     10774     10772     10775     10776
     10774     10772     10775     10777     10775     10777     10779     10780
     10775     10777     10779     10781     10775     10777     10779     10782
     10776     10775     10777     10778     10776     10775     10777     10779
     10777     10779     10782     10783     10777     10779     10782     10784
     10777     10779     10782     10785     10778     10777     10779     10780
     10778     10777     10779     10781     10778     10777     10779     10782
     10779     10782     10785     10786     10779     10782     10785     10787
     10779     10782     10785     10788     10780     10779     10782     10783
     10780     10779     10782     10784     10780     10779     10782     10785
     10781     10779     10782     10783     10781     10779     10782     10784
     10781     10779     10782     10785     10782     10785     10788     10789
     10782     10785     10788     10790     10782     10785     10788     10791
     10783     10782     10785     10786     10783     10782     10785     10787
     10783     10782     10785     10788     10784     10782     10785     10786
     10784     10782     10785     10787     10784     10782     10785     10788
     10785     10788     10791     10792     10785     10788     10791     10793
     10785     10788     10791     10794     10786     10785     10788     10789
     10786     10785     10788     10790     10786     10785     10788     10791
     10787     10785     10788     10789     10787     10785     10788     10790
     10787     10785     10788     10791     10788     10791     10794     10795
     10788     10791     10794     10796     10788     10791     10794     10797
     10789     10788     10791     10792     10789     10788     10791     10793
     10789     10788     10791     10794     10790     10788     10791     10792
     10790     10788     10791     10793     10790     10788     10791     10794
     10791     10794     10797     10798     10791     10794     10797     10799
     10791     10794     10797     10800     10792     10791     10794     10795
     10792     10791     10794     10796     10792     10791     10794     10797
     10793     10791     10794     10795     10793     10791     10794     10796
     10793     10791     10794     10797     10794     10797     10800     10801
     10794     10797     10800     10802     10794     10797     10800     10803
     10795     10794     10797     10798     10795     10794     10797     10799
     10795     10794     10797     10800     10796     10794     10797     10798
     10796     10794     10797     10799     10796     10794     10797     10800
     10798     10797     10800     10801     10798     10797     10800     10802
     10798     10797     10800     10803     10799     10797     10800     10801
     10799     10797     10800     10802     10799     10797     10800     10803
     10804     10807     10810     10811     10804     10807     10810     10812
     10804     10807     10810     10813     10805     10804     10807     10808
     10805     10804     10807     10809     10805     10804     10807     10810
     10806     10804     10807     10808     10806     10804     10807     10809
     10806     10804     10807     10810     10807     10810     10813     10814
     10807     10810     10813     10815     10807     10810     10813     10816
     10808     10807     10810     10811     10808     10807     10810     10812
     10808     10807     10810     10813     10809     10807     10810     10811
     10809     10807     10810     10812     10809     10807     10810     10813
     10810     10813     10816     10817     10810     10813     10816     10818
     10810     10813     10816     10819     10811     10810     10813     10814
     10811     10810     10813     10815     10811     10810     10813     10816
     10812     10810     10813     10814     10812     10810     10813     10815
     10812     10810     10813     10816     10813     10816     10819     10820
     10813     10816     10819     10821     10813     10816     10819     10822
     10814     10813     10816     10817     10814     10813     10816     10818
     10814     10813     10816     10819     10815     10813     10816     10817
     10815     10813     10816     10818     10815     10813     10816     10819
     10816     10819     10822     10823     10816     10819     10822     10824
     10816     10819     10822     10825     10817     10816     10819     10820
     10817     10816     10819     10821     10817     10816     10819     10822
     10818     10816     10819     10820     10818     10816     10819     10821
     10818     10816     10819     10822     10819     10822     10825     10826
     10819     10822     10825     10827     10819     10822     10825     10828
     10820     10819     10822     10823     10820     10819     10822     10824
     10820     10819     10822     10825     10821     10819     10822     10823
     10821     10819     10822     10824     10821     10819     10822     10825
     10822     10825     10828     10829     10822     10825     10828     10830
     10822     10825     10828     10831     10823     10822     10825     10826
     10823     10822     10825     10827     10823     10822     10825     10828
     10824     10822     10825     10826     10824     10822     10825     10827
     10824     10822     10825     10828     10825     10828     10831     10832
     10825     10828     10831     10833     10825     10828     10831     10834
     10826     10825     10828     10829     10826     10825     10828     10830
     10826     10825     10828     10831     10827     10825     10828     10829
     10827     10825     10828     10830     10827     10825     10828     10831
     10828     10831     10834     10835     10828     10831     10834     10836
     10828     10831     10834     10837     10829     10828     10831     10832
     10829     10828     10831     10833     10829     10828     10831     10834
     10830     10828     10831     10832     10830     10828     10831     10833
     10830     10828     10831     10834     10831     10834     10837     10838
     10831     10834     10837     10839     10831     10834     10837     10840
     10832     10831     10834     10835     10832     10831     10834     10836
     10832     10831     10834     10837     10833     10831     10834     10835
     10833     10831     10834     10836     10833     10831     10834     10837
     10834     10837     10840     10841     10834     10837     10840     10842
     10834     10837     10840     10843     10835     10834     10837     10838
     10835     10834     10837     10839     10835     10834     10837     10840
     10836     10834     10837     10838     10836     10834     10837     10839
     10836     10834     10837     10840     10837     10840     10843     10844
     10837     10840     10843     10845     10837     10840     10843     10846
     10838     10837     10840     10841     10838     10837     10840     10842
     10838     10837     10840     10843     10839     10837     10840     10841
     10839     10837     10840     10842     10839     10837     10840     10843
     10841     10840     10843     10844     10841     10840     10843     10845
     10841     10840     10843     10846     10842     10840     10843     10844
     10842     10840     10843     10845     10842     10840     10843     10846
     10847     10848     10863     10864     10847     10848     10863     10865
     10847     10848     10863     10869     10848     10847     10851     10852
     10848     10847     10851     10853     10848     10847     10851     10854
     10848     10847     10855     10856     10848     10847     10855     10857
     10848     10847     10855     10858     10848     10847     10859     10860
     10848     10847     10859     10861     10848     10847     10859     10862
     10848     10863     10869     10866     10849     10848     10847     10851
     10849     10848     10847     10855     10849     10848     10847     10859
     10849     10848     10863     10864     10849     10848     10863     10865
     10849     10848     10863     10869     10850     10848     10847     10851
     10850     10848     10847     10855     10850     10848     10847     10859
     10850     10848     10863     10864     10850     10848     10863     10865
     10850     10848     10863     10869     10851     10847     10848     10863
     10851     10847     10855     10856     10851     10847     10855     10857
     10851     10847     10855     10858     10851     10847     10859     10860
     10851     10847     10859     10861     10851     10847     10859     10862
     10852     10851     10847     10855     10852     10851     10847     10859
     10853     10851     10847     10855     10853     10851     10847     10859
     10854     10851     10847     10855     10854     10851     10847     10859
     10855     10847     10848     10863     10855     10847     10859     10860
     10855     10847     10859     10861     10855     10847     10859     10862
     10856     10855     10847     10859     10857     10855     10847     10859
     10858     10855     10847     10859     10859     10847     10848     10863
     10863     10869     10866     10867     10863     10869     10866     10868
     10863     10869     10866     10870     10864     10863     10869     10866
     10865     10863     10869     10866     10866     10870     10871     10872
     10866     10870     10871     10873     10866     10870     10871     10874
     10867     10866     10870     10871     10868     10866     10870     10871
     10869     10866     10870     10871     10870     10871     10874     10875
     10870     10871     10874     10876     10870     10871     10874     10882
     10871     10874     10876     10877     10871     10874     10882     10883
     10871     10874     10882     10884     10871     10874     10882     10885
     10872     10871     10874     10875     10872     10871     10874     10876
     10872     10871     10874     10882     10873     10871     10874     10875
     10873     10871     10874     10876     10873     10871     10874     10882
     10874     10876     10877     10878     10874     10876     10877     10879
     10874     10882     10885     10886     10875     10874     10876     10877
     10875     10874     10882     10883     10875     10874     10882     10884
     10875     10874     10882     10885     10876     10874     10882     10883
     10876     10874     10882     10884     10876     10874     10882     10885
     10876     10877     10879     10880     10876     10877     10879     10881
     10876     10877     10879     10891     10877     10876     10874     10882
     10877     10879     10891     10892     10877     10879     10891     10893
     10877     10879     10891     10894     10878     10877     10879     10880
     10878     10877     10879     10881     10878     10877     10879     10891
     10879     10891     10894     10895     10879     10891     10894     10896
     10879     10891     10894     10897     10880     10879     10891     10892
     10880     10879     10891     10893     10880     10879     10891     10894
     10881     10879     10891     10892     10881     10879     10891     10893
     10881     10879     10891     10894     10882     10885     10886     10887
     10882     10885     10886     10888     10883     10882     10885     10886
     10884     10882     10885     10886     10885     10886     10888     10889
     10885     10886     10888     10890     10885     10886     10888     10938
     10886     10888     10938     10939     10886     10888     10938     10940
     10886     10888     10938     10941     10887     10886     10888     10889
     10887     10886     10888     10890     10887     10886     10888     10938
     10888     10938     10941     10942     10888     10938     10941     10943
     10888     10938     10941     10944     10889     10888     10938     10939
     10889     10888     10938     10940     10889     10888     10938     10941
     10890     10888     10938     10939     10890     10888     10938     10940
     10890     10888     10938     10941     10891     10894     10897     10898
     10891     10894     10897     10899     10891     10894     10897     10900
     10892     10891     10894     10895     10892     10891     10894     10896
     10892     10891     10894     10897     10893     10891     10894     10895
     10893     10891     10894     10896     10893     10891     10894     10897
     10894     10897     10900     10901     10894     10897     10900     10902
     10894     10897     10900     10903     10895     10894     10897     10898
     10895     10894     10897     10899     10895     10894     10897     10900
     10896     10894     10897     10898     10896     10894     10897     10899
     10896     10894     10897     10900     10897     10900     10903     10904
     10897     10900     10903     10905     10897     10900     10903     10906
     10898     10897     10900     10901     10898     10897     10900     10902
     10898     10897     10900     10903     10899     10897     10900     10901
     10899     10897     10900     10902     10899     10897     10900     10903
     10900     10903     10906     10907     10900     10903     10906     10908
     10900     10903     10906     10909     10901     10900     10903     10904
     10901     10900     10903     10905     10901     10900     10903     10906
     10902     10900     10903     10904     10902     10900     10903     10905
     10902     10900     10903     10906     10903     10906     10909     10910
     10903     10906     10909     10911     10904     10903     10906     10907
     10904     10903     10906     10908     10904     10903     10906     10909
     10905     10903     10906     10907     10905     10903     10906     10908
     10905     10903     10906     10909     10906     10909     10911     10912
     10906     10909     10911     10913     10907     10906     10909     10910
     10907     10906     10909     10911     10908     10906     10909     10910
     10908     10906     10909     10911     10909     10911     10913     10914
     10909     10911     10913     10915     10909     10911     10913     10916
     10910     10909     10911     10912     10910     10909     10911     10913
     10911     10913     10916     10917     10911     10913     10916     10918
     10911     10913     10916     10919     10912     10911     10913     10914
     10912     10911     10913     10915     10912     10911     10913     10916
     10913     10916     10919     10920     10913     10916     10919     10921
     10913     10916     10919     10922     10914     10913     10916     10917
     10914     10913     10916     10918     10914     10913     10916     10919
     10915     10913     10916     10917     10915     10913     10916     10918
     10915     10913     10916     10919     10916     10919     10922     10923
     10916     10919     10922     10924     10916     10919     10922     10925
     10917     10916     10919     10920     10917     10916     10919     10921
     10917     10916     10919     10922     10918     10916     10919     10920
     10918     10916     10919     10921     10918     10916     10919     10922
     10919     10922     10925     10926     10919     10922     10925     10927
     10919     10922     10925     10928     10920     10919     10922     10923
     10920     10919     10922     10924     10920     10919     10922     10925
     10921     10919     10922     10923     10921     10919     10922     10924
     10921     10919     10922     10925     10922     10925     10928     10929
     10922     10925     10928     10930     10922     10925     10928     10931
     10923     10922     10925     10926     10923     10922     10925     10927
     10923     10922     10925     10928     10924     10922     10925     10926
     10924     10922     10925     10927     10924     10922     10925     10928
     10925     10928     10931     10932     10925     10928     10931     10933
     10925     10928     10931     10934     10926     10925     10928     10929
     10926     10925     10928     10930     10926     10925     10928     10931
     10927     10925     10928     10929     10927     10925     10928     10930
     10927     10925     10928     10931     10928     10931     10934     10935
     10928     10931     10934     10936     10928     10931     10934     10937
     10929     10928     10931     10932     10929     10928     10931     10933
     10929     10928     10931     10934     10930     10928     10931     10932
     10930     10928     10931     10933     10930     10928     10931     10934
     10932     10931     10934     10935     10932     10931     10934     10936
     10932     10931     10934     10937     10933     10931     10934     10935
     10933     10931     10934     10936     10933     10931     10934     10937
     10938     10941     10944     10945     10938     10941     10944     10946
     10938     10941     10944     10947     10939     10938     10941     10942
     10939     10938     10941     10943     10939     10938     10941     10944
     10940     10938     10941     10942     10940     10938     10941     10943
     10940     10938     10941     10944     10941     10944     10947     10948
     10941     10944     10947     10949     10941     10944     10947     10950
     10942     10941     10944     10945     10942     10941     10944     10946
     10942     10941     10944     10947     10943     10941     10944     10945
     10943     10941     10944     10946     10943     10941     10944     10947
     10944     10947     10950     10951     10944     10947     10950     10952
     10944     10947     10950     10953     10945     10944     10947     10948
     10945     10944     10947     10949     10945     10944     10947     10950
     10946     10944     10947     10948     10946     10944     10947     10949
     10946     10944     10947     10950     10947     10950     10953     10954
     10947     10950     10953     10955     10947     10950     10953     10956
     10948     10947     10950     10951     10948     10947     10950     10952
     10948     10947     10950     10953     10949     10947     10950     10951
     10949     10947     10950     10952     10949     10947     10950     10953
     10950     10953     10956     10957     10950     10953     10956     10958
     10950     10953     10956     10959     10951     10950     10953     10954
     10951     10950     10953     10955     10951     10950     10953     10956
     10952     10950     10953     10954     10952     10950     10953     10955
     10952     10950     10953     10956     10953     10956     10959     10960
     10953     10956     10959     10961     10953     10956     10959     10962
     10954     10953     10956     10957     10954     10953     10956     10958
     10954     10953     10956     10959     10955     10953     10956     10957
     10955     10953     10956     10958     10955     10953     10956     10959
     10956     10959     10962     10963     10956     10959     10962     10964
     10956     10959     10962     10965     10957     10956     10959     10960
     10957     10956     10959     10961     10957     10956     10959     10962
     10958     10956     10959     10960     10958     10956     10959     10961
     10958     10956     10959     10962     10959     10962     10965     10966
     10959     10962     10965     10967     10959     10962     10965     10968
     10960     10959     10962     10963     10960     10959     10962     10964
     10960     10959     10962     10965     10961     10959     10962     10963
     10961     10959     10962     10964     10961     10959     10962     10965
     10962     10965     10968     10969     10962     10965     10968     10970
     10962     10965     10968     10971     10963     10962     10965     10966
     10963     10962     10965     10967     10963     10962     10965     10968
     10964     10962     10965     10966     10964     10962     10965     10967
     10964     10962     10965     10968     10965     10968     10971     10972
     10965     10968     10971     10973     10965     10968     10971     10974
     10966     10965     10968     10969     10966     10965     10968     10970
     10966     10965     10968     10971     10967     10965     10968     10969
     10967     10965     10968     10970     10967     10965     10968     10971
     10968     10971     10974     10975     10968     10971     10974     10976
     10968     10971     10974     10977     10969     10968     10971     10972
     10969     10968     10971     10973     10969     10968     10971     10974
     10970     10968     10971     10972     10970     10968     10971     10973
     10970     10968     10971     10974     10971     10974     10977     10978
     10971     10974     10977     10979     10971     10974     10977     10980
     10972     10971     10974     10975     10972     10971     10974     10976
     10972     10971     10974     10977     10973     10971     10974     10975
     10973     10971     10974     10976     10973     10971     10974     10977
     10975     10974     10977     10978     10975     10974     10977     10979
     10975     10974     10977     10980     10976     10974     10977     10978
     10976     10974     10977     10979     10976     10974     10977     10980
     10981     10982     10997     10998     10981     10982     10997     10999
     10981     10982     10997     11003     10982     10981     10985     10986
     10982     10981     10985     10987     10982     10981     10985     10988
     10982     10981     10989     10990     10982     10981     10989     10991
     10982     10981     10989     10992     10982     10981     10993     10994
     10982     10981     10993     10995     10982     10981     10993     10996
     10982     10997     11003     11000     10983     10982     10981     10985
     10983     10982     10981     10989     10983     10982     10981     10993
     10983     10982     10997     10998     10983     10982     10997     10999
     10983     10982     10997     11003     10984     10982     10981     10985
     10984     10982     10981     10989     10984     10982     10981     10993
     10984     10982     10997     10998     10984     10982     10997     10999
     10984     10982     10997     11003     10985     10981     10982     10997
     10985     10981     10989     10990     10985     10981     10989     10991
     10985     10981     10989     10992     10985     10981     10993     10994
     10985     10981     10993     10995     10985     10981     10993     10996
     10986     10985     10981     10989     10986     10985     10981     10993
     10987     10985     10981     10989     10987     10985     10981     10993
     10988     10985     10981     10989     10988     10985     10981     10993
     10989     10981     10982     10997     10989     10981     10993     10994
     10989     10981     10993     10995     10989     10981     10993     10996
     10990     10989     10981     10993     10991     10989     10981     10993
     10992     10989     10981     10993     10993     10981     10982     10997
     10997     11003     11000     11001     10997     11003     11000     11002
     10997     11003     11000     11004     10998     10997     11003     11000
     10999     10997     11003     11000     11000     11004     11005     11006
     11000     11004     11005     11007     11000     11004     11005     11008
     11001     11000     11004     11005     11002     11000     11004     11005
     11003     11000     11004     11005     11004     11005     11008     11009
     11004     11005     11008     11010     11004     11005     11008     11016
     11005     11008     11010     11011     11005     11008     11016     11017
     11005     11008     11016     11018     11005     11008     11016     11019
     11006     11005     11008     11009     11006     11005     11008     11010
     11006     11005     11008     11016     11007     11005     11008     11009
     11007     11005     11008     11010     11007     11005     11008     11016
     11008     11010     11011     11012     11008     11010     11011     11013
     11008     11016     11019     11020     11009     11008     11010     11011
     11009     11008     11016     11017     11009     11008     11016     11018
     11009     11008     11016     11019     11010     11008     11016     11017
     11010     11008     11016     11018     11010     11008     11016     11019
     11010     11011     11013     11014     11010     11011     11013     11015
     11010     11011     11013     11025     11011     11010     11008     11016
     11011     11013     11025     11026     11011     11013     11025     11027
     11011     11013     11025     11028     11012     11011     11013     11014
     11012     11011     11013     11015     11012     11011     11013     11025
     11013     11025     11028     11029     11013     11025     11028     11030
     11013     11025     11028     11031     11014     11013     11025     11026
     11014     11013     11025     11027     11014     11013     11025     11028
     11015     11013     11025     11026     11015     11013     11025     11027
     11015     11013     11025     11028     11016     11019     11020     11021
     11016     11019     11020     11022     11017     11016     11019     11020
     11018     11016     11019     11020     11019     11020     11022     11023
     11019     11020     11022     11024     11019     11020     11022     11072
     11020     11022     11072     11073     11020     11022     11072     11074
     11020     11022     11072     11075     11021     11020     11022     11023
     11021     11020     11022     11024     11021     11020     11022     11072
     11022     11072     11075     11076     11022     11072     11075     11077
     11022     11072     11075     11078     11023     11022     11072     11073
     11023     11022     11072     11074     11023     11022     11072     11075
     11024     11022     11072     11073     11024     11022     11072     11074
     11024     11022     11072     11075     11025     11028     11031     11032
     11025     11028     11031     11033     11025     11028     11031     11034
     11026     11025     11028     11029     11026     11025     11028     11030
     11026     11025     11028     11031     11027     11025     11028     11029
     11027     11025     11028     11030     11027     11025     11028     11031
     11028     11031     11034     11035     11028     11031     11034     11036
     11028     11031     11034     11037     11029     11028     11031     11032
     11029     11028     11031     11033     11029     11028     11031     11034
     11030     11028     11031     11032     11030     11028     11031     11033
     11030     11028     11031     11034     11031     11034     11037     11038
     11031     11034     11037     11039     11031     11034     11037     11040
     11032     11031     11034     11035     11032     11031     11034     11036
     11032     11031     11034     11037     11033     11031     11034     11035
     11033     11031     11034     11036     11033     11031     11034     11037
     11034     11037     11040     11041     11034     11037     11040     11042
     11034     11037     11040     11043     11035     11034     11037     11038
     11035     11034     11037     11039     11035     11034     11037     11040
     11036     11034     11037     11038     11036     11034     11037     11039
     11036     11034     11037     11040     11037     11040     11043     11044
     11037     11040     11043     11045     11038     11037     11040     11041
     11038     11037     11040     11042     11038     11037     11040     11043
     11039     11037     11040     11041     11039     11037     11040     11042
     11039     11037     11040     11043     11040     11043     11045     11046
     11040     11043     11045     11047     11041     11040     11043     11044
     11041     11040     11043     11045     11042     11040     11043     11044
     11042     11040     11043     11045     11043     11045     11047     11048
     11043     11045     11047     11049     11043     11045     11047     11050
     11044     11043     11045     11046     11044     11043     11045     11047
     11045     11047     11050     11051     11045     11047     11050     11052
     11045     11047     11050     11053     11046     11045     11047     11048
     11046     11045     11047     11049     11046     11045     11047     11050
     11047     11050     11053     11054     11047     11050     11053     11055
     11047     11050     11053     11056     11048     11047     11050     11051
     11048     11047     11050     11052     11048     11047     11050     11053
     11049     11047     11050     11051     11049     11047     11050     11052
     11049     11047     11050     11053     11050     11053     11056     11057
     11050     11053     11056     11058     11050     11053     11056     11059
     11051     11050     11053     11054     11051     11050     11053     11055
     11051     11050     11053     11056     11052     11050     11053     11054
     11052     11050     11053     11055     11052     11050     11053     11056
     11053     11056     11059     11060     11053     11056     11059     11061
     11053     11056     11059     11062     11054     11053     11056     11057
     11054     11053     11056     11058     11054     11053     11056     11059
     11055     11053     11056     11057     11055     11053     11056     11058
     11055     11053     11056     11059     11056     11059     11062     11063
     11056     11059     11062     11064     11056     11059     11062     11065
     11057     11056     11059     11060     11057     11056     11059     11061
     11057     11056     11059     11062     11058     11056     11059     11060
     11058     11056     11059     11061     11058     11056     11059     11062
     11059     11062     11065     11066     11059     11062     11065     11067
     11059     11062     11065     11068     11060     11059     11062     11063
     11060     11059     11062     11064     11060     11059     11062     11065
     11061     11059     11062     11063     11061     11059     11062     11064
     11061     11059     11062     11065     11062     11065     11068     11069
     11062     11065     11068     11070     11062     11065     11068     11071
     11063     11062     11065     11066     11063     11062     11065     11067
     11063     11062     11065     11068     11064     11062     11065     11066
     11064     11062     11065     11067     11064     11062     11065     11068
     11066     11065     11068     11069     11066     11065     11068     11070
     11066     11065     11068     11071     11067     11065     11068     11069
     11067     11065     11068     11070     11067     11065     11068     11071
     11072     11075     11078     11079     11072     11075     11078     11080
     11072     11075     11078     11081     11073     11072     11075     11076
     11073     11072     11075     11077     11073     11072     11075     11078
     11074     11072     11075     11076     11074     11072     11075     11077
     11074     11072     11075     11078     11075     11078     11081     11082
     11075     11078     11081     11083     11075     11078     11081     11084
     11076     11075     11078     11079     11076     11075     11078     11080
     11076     11075     11078     11081     11077     11075     11078     11079
     11077     11075     11078     11080     11077     11075     11078     11081
     11078     11081     11084     11085     11078     11081     11084     11086
     11078     11081     11084     11087     11079     11078     11081     11082
     11079     11078     11081     11083     11079     11078     11081     11084
     11080     11078     11081     11082     11080     11078     11081     11083
     11080     11078     11081     11084     11081     11084     11087     11088
     11081     11084     11087     11089     11081     11084     11087     11090
     11082     11081     11084     11085     11082     11081     11084     11086
     11082     11081     11084     11087     11083     11081     11084     11085
     11083     11081     11084     11086     11083     11081     11084     11087
     11084     11087     11090     11091     11084     11087     11090     11092
     11084     11087     11090     11093     11085     11084     11087     11088
     11085     11084     11087     11089     11085     11084     11087     11090
     11086     11084     11087     11088     11086     11084     11087     11089
     11086     11084     11087     11090     11087     11090     11093     11094
     11087     11090     11093     11095     11087     11090     11093     11096
     11088     11087     11090     11091     11088     11087     11090     11092
     11088     11087     11090     11093     11089     11087     11090     11091
     11089     11087     11090     11092     11089     11087     11090     11093
     11090     11093     11096     11097     11090     11093     11096     11098
     11090     11093     11096     11099     11091     11090     11093     11094
     11091     11090     11093     11095     11091     11090     11093     11096
     11092     11090     11093     11094     11092     11090     11093     11095
     11092     11090     11093     11096     11093     11096     11099     11100
     11093     11096     11099     11101     11093     11096     11099     11102
     11094     11093     11096     11097     11094     11093     11096     11098
     11094     11093     11096     11099     11095     11093     11096     11097
     11095     11093     11096     11098     11095     11093     11096     11099
     11096     11099     11102     11103     11096     11099     11102     11104
     11096     11099     11102     11105     11097     11096     11099     11100
     11097     11096     11099     11101     11097     11096     11099     11102
     11098     11096     11099     11100     11098     11096     11099     11101
     11098     11096     11099     11102     11099     11102     11105     11106
     11099     11102     11105     11107     11099     11102     11105     11108
     11100     11099     11102     11103     11100     11099     11102     11104
     11100     11099     11102     11105     11101     11099     11102     11103
     11101     11099     11102     11104     11101     11099     11102     11105
     11102     11105     11108     11109     11102     11105     11108     11110
     11102     11105     11108     11111     11103     11102     11105     11106
     11103     11102     11105     11107     11103     11102     11105     11108
     11104     11102     11105     11106     11104     11102     11105     11107
     11104     11102     11105     11108     11105     11108     11111     11112
     11105     11108     11111     11113     11105     11108     11111     11114
     11106     11105     11108     11109     11106     11105     11108     11110
     11106     11105     11108     11111     11107     11105     11108     11109
     11107     11105     11108     11110     11107     11105     11108     11111
     11109     11108     11111     11112     11109     11108     11111     11113
     11109     11108     11111     11114     11110     11108     11111     11112
     11110     11108     11111     11113     11110     11108     11111     11114
     11115     11116     11131     11132     11115     11116     11131     11133
     11115     11116     11131     11137     11116     11115     11119     11120
     11116     11115     11119     11121     11116     11115     11119     11122
     11116     11115     11123     11124     11116     11115     11123     11125
     11116     11115     11123     11126     11116     11115     11127     11128
     11116     11115     11127     11129     11116     11115     11127     11130
     11116     11131     11137     11134     11117     11116     11115     11119
     11117     11116     11115     11123     11117     11116     11115     11127
     11117     11116     11131     11132     11117     11116     11131     11133
     11117     11116     11131     11137     11118     11116     11115     11119
     11118     11116     11115     11123     11118     11116     11115     11127
     11118     11116     11131     11132     11118     11116     11131     11133
     11118     11116     11131     11137     11119     11115     11116     11131
     11119     11115     11123     11124     11119     11115     11123     11125
     11119     11115     11123     11126     11119     11115     11127     11128
     11119     11115     11127     11129     11119     11115     11127     11130
     11120     11119     11115     11123     11120     11119     11115     11127
     11121     11119     11115     11123     11121     11119     11115     11127
     11122     11119     11115     11123     11122     11119     11115     11127
     11123     11115     11116     11131     11123     11115     11127     11128
     11123     11115     11127     11129     11123     11115     11127     11130
     11124     11123     11115     11127     11125     11123     11115     11127
     11126     11123     11115     11127     11127     11115     11116     11131
     11131     11137     11134     11135     11131     11137     11134     11136
     11131     11137     11134     11138     11132     11131     11137     11134
     11133     11131     11137     11134     11134     11138     11139     11140
     11134     11138     11139     11141     11134     11138     11139     11142
     11135     11134     11138     11139     11136     11134     11138     11139
     11137     11134     11138     11139     11138     11139     11142     11143
     11138     11139     11142     11144     11138     11139     11142     11150
     11139     11142     11144     11145     11139     11142     11150     11151
     11139     11142     11150     11152     11139     11142     11150     11153
     11140     11139     11142     11143     11140     11139     11142     11144
     11140     11139     11142     11150     11141     11139     11142     11143
     11141     11139     11142     11144     11141     11139     11142     11150
     11142     11144     11145     11146     11142     11144     11145     11147
     11142     11150     11153     11154     11143     11142     11144     11145
     11143     11142     11150     11151     11143     11142     11150     11152
     11143     11142     11150     11153     11144     11142     11150     11151
     11144     11142     11150     11152     11144     11142     11150     11153
     11144     11145     11147     11148     11144     11145     11147     11149
     11144     11145     11147     11159     11145     11144     11142     11150
     11145     11147     11159     11160     11145     11147     11159     11161
     11145     11147     11159     11162     11146     11145     11147     11148
     11146     11145     11147     11149     11146     11145     11147     11159
     11147     11159     11162     11163     11147     11159     11162     11164
     11147     11159     11162     11165     11148     11147     11159     11160
     11148     11147     11159     11161     11148     11147     11159     11162
     11149     11147     11159     11160     11149     11147     11159     11161
     11149     11147     11159     11162     11150     11153     11154     11155
     11150     11153     11154     11156     11151     11150     11153     11154
     11152     11150     11153     11154     11153     11154     11156     11157
     11153     11154     11156     11158     11153     11154     11156     11206
     11154     11156     11206     11207     11154     11156     11206     11208
     11154     11156     11206     11209     11155     11154     11156     11157
     11155     11154     11156     11158     11155     11154     11156     11206
     11156     11206     11209     11210     11156     11206     11209     11211
     11156     11206     11209     11212     11157     11156     11206     11207
     11157     11156     11206     11208     11157     11156     11206     11209
     11158     11156     11206     11207     11158     11156     11206     11208
     11158     11156     11206     11209     11159     11162     11165     11166
     11159     11162     11165     11167     11159     11162     11165     11168
     11160     11159     11162     11163     11160     11159     11162     11164
     11160     11159     11162     11165     11161     11159     11162     11163
     11161     11159     11162     11164     11161     11159     11162     11165
     11162     11165     11168     11169     11162     11165     11168     11170
     11162     11165     11168     11171     11163     11162     11165     11166
     11163     11162     11165     11167     11163     11162     11165     11168
     11164     11162     11165     11166     11164     11162     11165     11167
     11164     11162     11165     11168     11165     11168     11171     11172
     11165     11168     11171     11173     11165     11168     11171     11174
     11166     11165     11168     11169     11166     11165     11168     11170
     11166     11165     11168     11171     11167     11165     11168     11169
     11167     11165     11168     11170     11167     11165     11168     11171
     11168     11171     11174     11175     11168     11171     11174     11176
     11168     11171     11174     11177     11169     11168     11171     11172
     11169     11168     11171     11173     11169     11168     11171     11174
     11170     11168     11171     11172     11170     11168     11171     11173
     11170     11168     11171     11174     11171     11174     11177     11178
     11171     11174     11177     11179     11172     11171     11174     11175
     11172     11171     11174     11176     11172     11171     11174     11177
     11173     11171     11174     11175     11173     11171     11174     11176
     11173     11171     11174     11177     11174     11177     11179     11180
     11174     11177     11179     11181     11175     11174     11177     11178
     11175     11174     11177     11179     11176     11174     11177     11178
     11176     11174     11177     11179     11177     11179     11181     11182
     11177     11179     11181     11183     11177     11179     11181     11184
     11178     11177     11179     11180     11178     11177     11179     11181
     11179     11181     11184     11185     11179     11181     11184     11186
     11179     11181     11184     11187     11180     11179     11181     11182
     11180     11179     11181     11183     11180     11179     11181     11184
     11181     11184     11187     11188     11181     11184     11187     11189
     11181     11184     11187     11190     11182     11181     11184     11185
     11182     11181     11184     11186     11182     11181     11184     11187
     11183     11181     11184     11185     11183     11181     11184     11186
     11183     11181     11184     11187     11184     11187     11190     11191
     11184     11187     11190     11192     11184     11187     11190     11193
     11185     11184     11187     11188     11185     11184     11187     11189
     11185     11184     11187     11190     11186     11184     11187     11188
     11186     11184     11187     11189     11186     11184     11187     11190
     11187     11190     11193     11194     11187     11190     11193     11195
     11187     11190     11193     11196     11188     11187     11190     11191
     11188     11187     11190     11192     11188     11187     11190     11193
     11189     11187     11190     11191     11189     11187     11190     11192
     11189     11187     11190     11193     11190     11193     11196     11197
     11190     11193     11196     11198     11190     11193     11196     11199
     11191     11190     11193     11194     11191     11190     11193     11195
     11191     11190     11193     11196     11192     11190     11193     11194
     11192     11190     11193     11195     11192     11190     11193     11196
     11193     11196     11199     11200     11193     11196     11199     11201
     11193     11196     11199     11202     11194     11193     11196     11197
     11194     11193     11196     11198     11194     11193     11196     11199
     11195     11193     11196     11197     11195     11193     11196     11198
     11195     11193     11196     11199     11196     11199     11202     11203
     11196     11199     11202     11204     11196     11199     11202     11205
     11197     11196     11199     11200     11197     11196     11199     11201
     11197     11196     11199     11202     11198     11196     11199     11200
     11198     11196     11199     11201     11198     11196     11199     11202
     11200     11199     11202     11203     11200     11199     11202     11204
     11200     11199     11202     11205     11201     11199     11202     11203
     11201     11199     11202     11204     11201     11199     11202     11205
     11206     11209     11212     11213     11206     11209     11212     11214
     11206     11209     11212     11215     11207     11206     11209     11210
     11207     11206     11209     11211     11207     11206     11209     11212
     11208     11206     11209     11210     11208     11206     11209     11211
     11208     11206     11209     11212     11209     11212     11215     11216
     11209     11212     11215     11217     11209     11212     11215     11218
     11210     11209     11212     11213     11210     11209     11212     11214
     11210     11209     11212     11215     11211     11209     11212     11213
     11211     11209     11212     11214     11211     11209     11212     11215
     11212     11215     11218     11219     11212     11215     11218     11220
     11212     11215     11218     11221     11213     11212     11215     11216
     11213     11212     11215     11217     11213     11212     11215     11218
     11214     11212     11215     11216     11214     11212     11215     11217
     11214     11212     11215     11218     11215     11218     11221     11222
     11215     11218     11221     11223     11215     11218     11221     11224
     11216     11215     11218     11219     11216     11215     11218     11220
     11216     11215     11218     11221     11217     11215     11218     11219
     11217     11215     11218     11220     11217     11215     11218     11221
     11218     11221     11224     11225     11218     11221     11224     11226
     11218     11221     11224     11227     11219     11218     11221     11222
     11219     11218     11221     11223     11219     11218     11221     11224
     11220     11218     11221     11222     11220     11218     11221     11223
     11220     11218     11221     11224     11221     11224     11227     11228
     11221     11224     11227     11229     11221     11224     11227     11230
     11222     11221     11224     11225     11222     11221     11224     11226
     11222     11221     11224     11227     11223     11221     11224     11225
     11223     11221     11224     11226     11223     11221     11224     11227
     11224     11227     11230     11231     11224     11227     11230     11232
     11224     11227     11230     11233     11225     11224     11227     11228
     11225     11224     11227     11229     11225     11224     11227     11230
     11226     11224     11227     11228     11226     11224     11227     11229
     11226     11224     11227     11230     11227     11230     11233     11234
     11227     11230     11233     11235     11227     11230     11233     11236
     11228     11227     11230     11231     11228     11227     11230     11232
     11228     11227     11230     11233     11229     11227     11230     11231
     11229     11227     11230     11232     11229     11227     11230     11233
     11230     11233     11236     11237     11230     11233     11236     11238
     11230     11233     11236     11239     11231     11230     11233     11234
     11231     11230     11233     11235     11231     11230     11233     11236
     11232     11230     11233     11234     11232     11230     11233     11235
     11232     11230     11233     11236     11233     11236     11239     11240
     11233     11236     11239     11241     11233     11236     11239     11242
     11234     11233     11236     11237     11234     11233     11236     11238
     11234     11233     11236     11239     11235     11233     11236     11237
     11235     11233     11236     11238     11235     11233     11236     11239
     11236     11239     11242     11243     11236     11239     11242     11244
     11236     11239     11242     11245     11237     11236     11239     11240
     11237     11236     11239     11241     11237     11236     11239     11242
     11238     11236     11239     11240     11238     11236     11239     11241
     11238     11236     11239     11242     11239     11242     11245     11246
     11239     11242     11245     11247     11239     11242     11245     11248
     11240     11239     11242     11243     11240     11239     11242     11244
     11240     11239     11242     11245     11241     11239     11242     11243
     11241     11239     11242     11244     11241     11239     11242     11245
     11243     11242     11245     11246     11243     11242     11245     11247
     11243     11242     11245     11248     11244     11242     11245     11246
     11244     11242     11245     11247     11244     11242     11245     11248
     11249     11250     11265     11266     11249     11250     11265     11267
     11249     11250     11265     11271     11250     11249     11253     11254
     11250     11249     11253     11255     11250     11249     11253     11256
     11250     11249     11257     11258     11250     11249     11257     11259
     11250     11249     11257     11260     11250     11249     11261     11262
     11250     11249     11261     11263     11250     11249     11261     11264
     11250     11265     11271     11268     11251     11250     11249     11253
     11251     11250     11249     11257     11251     11250     11249     11261
     11251     11250     11265     11266     11251     11250     11265     11267
     11251     11250     11265     11271     11252     11250     11249     11253
     11252     11250     11249     11257     11252     11250     11249     11261
     11252     11250     11265     11266     11252     11250     11265     11267
     11252     11250     11265     11271     11253     11249     11250     11265
     11253     11249     11257     11258     11253     11249     11257     11259
     11253     11249     11257     11260     11253     11249     11261     11262
     11253     11249     11261     11263     11253     11249     11261     11264
     11254     11253     11249     11257     11254     11253     11249     11261
     11255     11253     11249     11257     11255     11253     11249     11261
     11256     11253     11249     11257     11256     11253     11249     11261
     11257     11249     11250     11265     11257     11249     11261     11262
     11257     11249     11261     11263     11257     11249     11261     11264
     11258     11257     11249     11261     11259     11257     11249     11261
     11260     11257     11249     11261     11261     11249     11250     11265
     11265     11271     11268     11269     11265     11271     11268     11270
     11265     11271     11268     11272     11266     11265     11271     11268
     11267     11265     11271     11268     11268     11272     11273     11274
     11268     11272     11273     11275     11268     11272     11273     11276
     11269     11268     11272     11273     11270     11268     11272     11273
     11271     11268     11272     11273     11272     11273     11276     11277
     11272     11273     11276     11278     11272     11273     11276     11284
     11273     11276     11278     11279     11273     11276     11284     11285
     11273     11276     11284     11286     11273     11276     11284     11287
     11274     11273     11276     11277     11274     11273     11276     11278
     11274     11273     11276     11284     11275     11273     11276     11277
     11275     11273     11276     11278     11275     11273     11276     11284
     11276     11278     11279     11280     11276     11278     11279     11281
     11276     11284     11287     11288     11277     11276     11278     11279
     11277     11276     11284     11285     11277     11276     11284     11286
     11277     11276     11284     11287     11278     11276     11284     11285
     11278     11276     11284     11286     11278     11276     11284     11287
     11278     11279     11281     11282     11278     11279     11281     11283
     11278     11279     11281     11293     11279     11278     11276     11284
     11279     11281     11293     11294     11279     11281     11293     11295
     11279     11281     11293     11296     11280     11279     11281     11282
     11280     11279     11281     11283     11280     11279     11281     11293
     11281     11293     11296     11297     11281     11293     11296     11298
     11281     11293     11296     11299     11282     11281     11293     11294
     11282     11281     11293     11295     11282     11281     11293     11296
     11283     11281     11293     11294     11283     11281     11293     11295
     11283     11281     11293     11296     11284     11287     11288     11289
     11284     11287     11288     11290     11285     11284     11287     11288
     11286     11284     11287     11288     11287     11288     11290     11291
     11287     11288     11290     11292     11287     11288     11290     11340
     11288     11290     11340     11341     11288     11290     11340     11342
     11288     11290     11340     11343     11289     11288     11290     11291
     11289     11288     11290     11292     11289     11288     11290     11340
     11290     11340     11343     11344     11290     11340     11343     11345
     11290     11340     11343     11346     11291     11290     11340     11341
     11291     11290     11340     11342     11291     11290     11340     11343
     11292     11290     11340     11341     11292     11290     11340     11342
     11292     11290     11340     11343     11293     11296     11299     11300
     11293     11296     11299     11301     11293     11296     11299     11302
     11294     11293     11296     11297     11294     11293     11296     11298
     11294     11293     11296     11299     11295     11293     11296     11297
     11295     11293     11296     11298     11295     11293     11296     11299
     11296     11299     11302     11303     11296     11299     11302     11304
     11296     11299     11302     11305     11297     11296     11299     11300
     11297     11296     11299     11301     11297     11296     11299     11302
     11298     11296     11299     11300     11298     11296     11299     11301
     11298     11296     11299     11302     11299     11302     11305     11306
     11299     11302     11305     11307     11299     11302     11305     11308
     11300     11299     11302     11303     11300     11299     11302     11304
     11300     11299     11302     11305     11301     11299     11302     11303
     11301     11299     11302     11304     11301     11299     11302     11305
     11302     11305     11308     11309     11302     11305     11308     11310
     11302     11305     11308     11311     11303     11302     11305     11306
     11303     11302     11305     11307     11303     11302     11305     11308
     11304     11302     11305     11306     11304     11302     11305     11307
     11304     11302     11305     11308     11305     11308     11311     11312
     11305     11308     11311     11313     11306     11305     11308     11309
     11306     11305     11308     11310     11306     11305     11308     11311
     11307     11305     11308     11309     11307     11305     11308     11310
     11307     11305     11308     11311     11308     11311     11313     11314
     11308     11311     11313     11315     11309     11308     11311     11312
     11309     11308     11311     11313     11310     11308     11311     11312
     11310     11308     11311     11313     11311     11313     11315     11316
     11311     11313     11315     11317     11311     11313     11315     11318
     11312     11311     11313     11314     11312     11311     11313     11315
     11313     11315     11318     11319     11313     11315     11318     11320
     11313     11315     11318     11321     11314     11313     11315     11316
     11314     11313     11315     11317     11314     11313     11315     11318
     11315     11318     11321     11322     11315     11318     11321     11323
     11315     11318     11321     11324     11316     11315     11318     11319
     11316     11315     11318     11320     11316     11315     11318     11321
     11317     11315     11318     11319     11317     11315     11318     11320
     11317     11315     11318     11321     11318     11321     11324     11325
     11318     11321     11324     11326     11318     11321     11324     11327
     11319     11318     11321     11322     11319     11318     11321     11323
     11319     11318     11321     11324     11320     11318     11321     11322
     11320     11318     11321     11323     11320     11318     11321     11324
     11321     11324     11327     11328     11321     11324     11327     11329
     11321     11324     11327     11330     11322     11321     11324     11325
     11322     11321     11324     11326     11322     11321     11324     11327
     11323     11321     11324     11325     11323     11321     11324     11326
     11323     11321     11324     11327     11324     11327     11330     11331
     11324     11327     11330     11332     11324     11327     11330     11333
     11325     11324     11327     11328     11325     11324     11327     11329
     11325     11324     11327     11330     11326     11324     11327     11328
     11326     11324     11327     11329     11326     11324     11327     11330
     11327     11330     11333     11334     11327     11330     11333     11335
     11327     11330     11333     11336     11328     11327     11330     11331
     11328     11327     11330     11332     11328     11327     11330     11333
     11329     11327     11330     11331     11329     11327     11330     11332
     11329     11327     11330     11333     11330     11333     11336     11337
     11330     11333     11336     11338     11330     11333     11336     11339
     11331     11330     11333     11334     11331     11330     11333     11335
     11331     11330     11333     11336     11332     11330     11333     11334
     11332     11330     11333     11335     11332     11330     11333     11336
     11334     11333     11336     11337     11334     11333     11336     11338
     11334     11333     11336     11339     11335     11333     11336     11337
     11335     11333     11336     11338     11335     11333     11336     11339
     11340     11343     11346     11347     11340     11343     11346     11348
     11340     11343     11346     11349     11341     11340     11343     11344
     11341     11340     11343     11345     11341     11340     11343     11346
     11342     11340     11343     11344     11342     11340     11343     11345
     11342     11340     11343     11346     11343     11346     11349     11350
     11343     11346     11349     11351     11343     11346     11349     11352
     11344     11343     11346     11347     11344     11343     11346     11348
     11344     11343     11346     11349     11345     11343     11346     11347
     11345     11343     11346     11348     11345     11343     11346     11349
     11346     11349     11352     11353     11346     11349     11352     11354
     11346     11349     11352     11355     11347     11346     11349     11350
     11347     11346     11349     11351     11347     11346     11349     11352
     11348     11346     11349     11350     11348     11346     11349     11351
     11348     11346     11349     11352     11349     11352     11355     11356
     11349     11352     11355     11357     11349     11352     11355     11358
     11350     11349     11352     11353     11350     11349     11352     11354
     11350     11349     11352     11355     11351     11349     11352     11353
     11351     11349     11352     11354     11351     11349     11352     11355
     11352     11355     11358     11359     11352     11355     11358     11360
     11352     11355     11358     11361     11353     11352     11355     11356
     11353     11352     11355     11357     11353     11352     11355     11358
     11354     11352     11355     11356     11354     11352     11355     11357
     11354     11352     11355     11358     11355     11358     11361     11362
     11355     11358     11361     11363     11355     11358     11361     11364
     11356     11355     11358     11359     11356     11355     11358     11360
     11356     11355     11358     11361     11357     11355     11358     11359
     11357     11355     11358     11360     11357     11355     11358     11361
     11358     11361     11364     11365     11358     11361     11364     11366
     11358     11361     11364     11367     11359     11358     11361     11362
     11359     11358     11361     11363     11359     11358     11361     11364
     11360     11358     11361     11362     11360     11358     11361     11363
     11360     11358     11361     11364     11361     11364     11367     11368
     11361     11364     11367     11369     11361     11364     11367     11370
     11362     11361     11364     11365     11362     11361     11364     11366
     11362     11361     11364     11367     11363     11361     11364     11365
     11363     11361     11364     11366     11363     11361     11364     11367
     11364     11367     11370     11371     11364     11367     11370     11372
     11364     11367     11370     11373     11365     11364     11367     11368
     11365     11364     11367     11369     11365     11364     11367     11370
     11366     11364     11367     11368     11366     11364     11367     11369
     11366     11364     11367     11370     11367     11370     11373     11374
     11367     11370     11373     11375     11367     11370     11373     11376
     11368     11367     11370     11371     11368     11367     11370     11372
     11368     11367     11370     11373     11369     11367     11370     11371
     11369     11367     11370     11372     11369     11367     11370     11373
     11370     11373     11376     11377     11370     11373     11376     11378
     11370     11373     11376     11379     11371     11370     11373     11374
     11371     11370     11373     11375     11371     11370     11373     11376
     11372     11370     11373     11374     11372     11370     11373     11375
     11372     11370     11373     11376     11373     11376     11379     11380
     11373     11376     11379     11381     11373     11376     11379     11382
     11374     11373     11376     11377     11374     11373     11376     11378
     11374     11373     11376     11379     11375     11373     11376     11377
     11375     11373     11376     11378     11375     11373     11376     11379
     11377     11376     11379     11380     11377     11376     11379     11381
     11377     11376     11379     11382     11378     11376     11379     11380
     11378     11376     11379     11381     11378     11376     11379     11382
     11383     11384     11399     11400     11383     11384     11399     11401
     11383     11384     11399     11405     11384     11383     11387     11388
     11384     11383     11387     11389     11384     11383     11387     11390
     11384     11383     11391     11392     11384     11383     11391     11393
     11384     11383     11391     11394     11384     11383     11395     11396
     11384     11383     11395     11397     11384     11383     11395     11398
     11384     11399     11405     11402     11385     11384     11383     11387
     11385     11384     11383     11391     11385     11384     11383     11395
     11385     11384     11399     11400     11385     11384     11399     11401
     11385     11384     11399     11405     11386     11384     11383     11387
     11386     11384     11383     11391     11386     11384     11383     11395
     11386     11384     11399     11400     11386     11384     11399     11401
     11386     11384     11399     11405     11387     11383     11384     11399
     11387     11383     11391     11392     11387     11383     11391     11393
     11387     11383     11391     11394     11387     11383     11395     11396
     11387     11383     11395     11397     11387     11383     11395     11398
     11388     11387     11383     11391     11388     11387     11383     11395
     11389     11387     11383     11391     11389     11387     11383     11395
     11390     11387     11383     11391     11390     11387     11383     11395
     11391     11383     11384     11399     11391     11383     11395     11396
     11391     11383     11395     11397     11391     11383     11395     11398
     11392     11391     11383     11395     11393     11391     11383     11395
     11394     11391     11383     11395     11395     11383     11384     11399
     11399     11405     11402     11403     11399     11405     11402     11404
     11399     11405     11402     11406     11400     11399     11405     11402
     11401     11399     11405     11402     11402     11406     11407     11408
     11402     11406     11407     11409     11402     11406     11407     11410
     11403     11402     11406     11407     11404     11402     11406     11407
     11405     11402     11406     11407     11406     11407     11410     11411
     11406     11407     11410     11412     11406     11407     11410     11418
     11407     11410     11412     11413     11407     11410     11418     11419
     11407     11410     11418     11420     11407     11410     11418     11421
     11408     11407     11410     11411     11408     11407     11410     11412
     11408     11407     11410     11418     11409     11407     11410     11411
     11409     11407     11410     11412     11409     11407     11410     11418
     11410     11412     11413     11414     11410     11412     11413     11415
     11410     11418     11421     11422     11411     11410     11412     11413
     11411     11410     11418     11419     11411     11410     11418     11420
     11411     11410     11418     11421     11412     11410     11418     11419
     11412     11410     11418     11420     11412     11410     11418     11421
     11412     11413     11415     11416     11412     11413     11415     11417
     11412     11413     11415     11427     11413     11412     11410     11418
     11413     11415     11427     11428     11413     11415     11427     11429
     11413     11415     11427     11430     11414     11413     11415     11416
     11414     11413     11415     11417     11414     11413     11415     11427
     11415     11427     11430     11431     11415     11427     11430     11432
     11415     11427     11430     11433     11416     11415     11427     11428
     11416     11415     11427     11429     11416     11415     11427     11430
     11417     11415     11427     11428     11417     11415     11427     11429
     11417     11415     11427     11430     11418     11421     11422     11423
     11418     11421     11422     11424     11419     11418     11421     11422
     11420     11418     11421     11422     11421     11422     11424     11425
     11421     11422     11424     11426     11421     11422     11424     11474
     11422     11424     11474     11475     11422     11424     11474     11476
     11422     11424     11474     11477     11423     11422     11424     11425
     11423     11422     11424     11426     11423     11422     11424     11474
     11424     11474     11477     11478     11424     11474     11477     11479
     11424     11474     11477     11480     11425     11424     11474     11475
     11425     11424     11474     11476     11425     11424     11474     11477
     11426     11424     11474     11475     11426     11424     11474     11476
     11426     11424     11474     11477     11427     11430     11433     11434
     11427     11430     11433     11435     11427     11430     11433     11436
     11428     11427     11430     11431     11428     11427     11430     11432
     11428     11427     11430     11433     11429     11427     11430     11431
     11429     11427     11430     11432     11429     11427     11430     11433
     11430     11433     11436     11437     11430     11433     11436     11438
     11430     11433     11436     11439     11431     11430     11433     11434
     11431     11430     11433     11435     11431     11430     11433     11436
     11432     11430     11433     11434     11432     11430     11433     11435
     11432     11430     11433     11436     11433     11436     11439     11440
     11433     11436     11439     11441     11433     11436     11439     11442
     11434     11433     11436     11437     11434     11433     11436     11438
     11434     11433     11436     11439     11435     11433     11436     11437
     11435     11433     11436     11438     11435     11433     11436     11439
     11436     11439     11442     11443     11436     11439     11442     11444
     11436     11439     11442     11445     11437     11436     11439     11440
     11437     11436     11439     11441     11437     11436     11439     11442
     11438     11436     11439     11440     11438     11436     11439     11441
     11438     11436     11439     11442     11439     11442     11445     11446
     11439     11442     11445     11447     11440     11439     11442     11443
     11440     11439     11442     11444     11440     11439     11442     11445
     11441     11439     11442     11443     11441     11439     11442     11444
     11441     11439     11442     11445     11442     11445     11447     11448
     11442     11445     11447     11449     11443     11442     11445     11446
     11443     11442     11445     11447     11444     11442     11445     11446
     11444     11442     11445     11447     11445     11447     11449     11450
     11445     11447     11449     11451     11445     11447     11449     11452
     11446     11445     11447     11448     11446     11445     11447     11449
     11447     11449     11452     11453     11447     11449     11452     11454
     11447     11449     11452     11455     11448     11447     11449     11450
     11448     11447     11449     11451     11448     11447     11449     11452
     11449     11452     11455     11456     11449     11452     11455     11457
     11449     11452     11455     11458     11450     11449     11452     11453
     11450     11449     11452     11454     11450     11449     11452     11455
     11451     11449     11452     11453     11451     11449     11452     11454
     11451     11449     11452     11455     11452     11455     11458     11459
     11452     11455     11458     11460     11452     11455     11458     11461
     11453     11452     11455     11456     11453     11452     11455     11457
     11453     11452     11455     11458     11454     11452     11455     11456
     11454     11452     11455     11457     11454     11452     11455     11458
     11455     11458     11461     11462     11455     11458     11461     11463
     11455     11458     11461     11464     11456     11455     11458     11459
     11456     11455     11458     11460     11456     11455     11458     11461
     11457     11455     11458     11459     11457     11455     11458     11460
     11457     11455     11458     11461     11458     11461     11464     11465
     11458     11461     11464     11466     11458     11461     11464     11467
     11459     11458     11461     11462     11459     11458     11461     11463
     11459     11458     11461     11464     11460     11458     11461     11462
     11460     11458     11461     11463     11460     11458     11461     11464
     11461     11464     11467     11468     11461     11464     11467     11469
     11461     11464     11467     11470     11462     11461     11464     11465
     11462     11461     11464     11466     11462     11461     11464     11467
     11463     11461     11464     11465     11463     11461     11464     11466
     11463     11461     11464     11467     11464     11467     11470     11471
     11464     11467     11470     11472     11464     11467     11470     11473
     11465     11464     11467     11468     11465     11464     11467     11469
     11465     11464     11467     11470     11466     11464     11467     11468
     11466     11464     11467     11469     11466     11464     11467     11470
     11468     11467     11470     11471     11468     11467     11470     11472
     11468     11467     11470     11473     11469     11467     11470     11471
     11469     11467     11470     11472     11469     11467     11470     11473
     11474     11477     11480     11481     11474     11477     11480     11482
     11474     11477     11480     11483     11475     11474     11477     11478
     11475     11474     11477     11479     11475     11474     11477     11480
     11476     11474     11477     11478     11476     11474     11477     11479
     11476     11474     11477     11480     11477     11480     11483     11484
     11477     11480     11483     11485     11477     11480     11483     11486
     11478     11477     11480     11481     11478     11477     11480     11482
     11478     11477     11480     11483     11479     11477     11480     11481
     11479     11477     11480     11482     11479     11477     11480     11483
     11480     11483     11486     11487     11480     11483     11486     11488
     11480     11483     11486     11489     11481     11480     11483     11484
     11481     11480     11483     11485     11481     11480     11483     11486
     11482     11480     11483     11484     11482     11480     11483     11485
     11482     11480     11483     11486     11483     11486     11489     11490
     11483     11486     11489     11491     11483     11486     11489     11492
     11484     11483     11486     11487     11484     11483     11486     11488
     11484     11483     11486     11489     11485     11483     11486     11487
     11485     11483     11486     11488     11485     11483     11486     11489
     11486     11489     11492     11493     11486     11489     11492     11494
     11486     11489     11492     11495     11487     11486     11489     11490
     11487     11486     11489     11491     11487     11486     11489     11492
     11488     11486     11489     11490     11488     11486     11489     11491
     11488     11486     11489     11492     11489     11492     11495     11496
     11489     11492     11495     11497     11489     11492     11495     11498
     11490     11489     11492     11493     11490     11489     11492     11494
     11490     11489     11492     11495     11491     11489     11492     11493
     11491     11489     11492     11494     11491     11489     11492     11495
     11492     11495     11498     11499     11492     11495     11498     11500
     11492     11495     11498     11501     11493     11492     11495     11496
     11493     11492     11495     11497     11493     11492     11495     11498
     11494     11492     11495     11496     11494     11492     11495     11497
     11494     11492     11495     11498     11495     11498     11501     11502
     11495     11498     11501     11503     11495     11498     11501     11504
     11496     11495     11498     11499     11496     11495     11498     11500
     11496     11495     11498     11501     11497     11495     11498     11499
     11497     11495     11498     11500     11497     11495     11498     11501
     11498     11501     11504     11505     11498     11501     11504     11506
     11498     11501     11504     11507     11499     11498     11501     11502
     11499     11498     11501     11503     11499     11498     11501     11504
     11500     11498     11501     11502     11500     11498     11501     11503
     11500     11498     11501     11504     11501     11504     11507     11508
     11501     11504     11507     11509     11501     11504     11507     11510
     11502     11501     11504     11505     11502     11501     11504     11506
     11502     11501     11504     11507     11503     11501     11504     11505
     11503     11501     11504     11506     11503     11501     11504     11507
     11504     11507     11510     11511     11504     11507     11510     11512
     11504     11507     11510     11513     11505     11504     11507     11508
     11505     11504     11507     11509     11505     11504     11507     11510
     11506     11504     11507     11508     11506     11504     11507     11509
     11506     11504     11507     11510     11507     11510     11513     11514
     11507     11510     11513     11515     11507     11510     11513     11516
     11508     11507     11510     11511     11508     11507     11510     11512
     11508     11507     11510     11513     11509     11507     11510     11511
     11509     11507     11510     11512     11509     11507     11510     11513
     11511     11510     11513     11514     11511     11510     11513     11515
     11511     11510     11513     11516     11512     11510     11513     11514
     11512     11510     11513     11515     11512     11510     11513     11516
     11517     11518     11533     11534     11517     11518     11533     11535
     11517     11518     11533     11539     11518     11517     11521     11522
     11518     11517     11521     11523     11518     11517     11521     11524
     11518     11517     11525     11526     11518     11517     11525     11527
     11518     11517     11525     11528     11518     11517     11529     11530
     11518     11517     11529     11531     11518     11517     11529     11532
     11518     11533     11539     11536     11519     11518     11517     11521
     11519     11518     11517     11525     11519     11518     11517     11529
     11519     11518     11533     11534     11519     11518     11533     11535
     11519     11518     11533     11539     11520     11518     11517     11521
     11520     11518     11517     11525     11520     11518     11517     11529
     11520     11518     11533     11534     11520     11518     11533     11535
     11520     11518     11533     11539     11521     11517     11518     11533
     11521     11517     11525     11526     11521     11517     11525     11527
     11521     11517     11525     11528     11521     11517     11529     11530
     11521     11517     11529     11531     11521     11517     11529     11532
     11522     11521     11517     11525     11522     11521     11517     11529
     11523     11521     11517     11525     11523     11521     11517     11529
     11524     11521     11517     11525     11524     11521     11517     11529
     11525     11517     11518     11533     11525     11517     11529     11530
     11525     11517     11529     11531     11525     11517     11529     11532
     11526     11525     11517     11529     11527     11525     11517     11529
     11528     11525     11517     11529     11529     11517     11518     11533
     11533     11539     11536     11537     11533     11539     11536     11538
     11533     11539     11536     11540     11534     11533     11539     11536
     11535     11533     11539     11536     11536     11540     11541     11542
     11536     11540     11541     11543     11536     11540     11541     11544
     11537     11536     11540     11541     11538     11536     11540     11541
     11539     11536     11540     11541     11540     11541     11544     11545
     11540     11541     11544     11546     11540     11541     11544     11552
     11541     11544     11546     11547     11541     11544     11552     11553
     11541     11544     11552     11554     11541     11544     11552     11555
     11542     11541     11544     11545     11542     11541     11544     11546
     11542     11541     11544     11552     11543     11541     11544     11545
     11543     11541     11544     11546     11543     11541     11544     11552
     11544     11546     11547     11548     11544     11546     11547     11549
     11544     11552     11555     11556     11545     11544     11546     11547
     11545     11544     11552     11553     11545     11544     11552     11554
     11545     11544     11552     11555     11546     11544     11552     11553
     11546     11544     11552     11554     11546     11544     11552     11555
     11546     11547     11549     11550     11546     11547     11549     11551
     11546     11547     11549     11561     11547     11546     11544     11552
     11547     11549     11561     11562     11547     11549     11561     11563
     11547     11549     11561     11564     11548     11547     11549     11550
     11548     11547     11549     11551     11548     11547     11549     11561
     11549     11561     11564     11565     11549     11561     11564     11566
     11549     11561     11564     11567     11550     11549     11561     11562
     11550     11549     11561     11563     11550     11549     11561     11564
     11551     11549     11561     11562     11551     11549     11561     11563
     11551     11549     11561     11564     11552     11555     11556     11557
     11552     11555     11556     11558     11553     11552     11555     11556
     11554     11552     11555     11556     11555     11556     11558     11559
     11555     11556     11558     11560     11555     11556     11558     11608
     11556     11558     11608     11609     11556     11558     11608     11610
     11556     11558     11608     11611     11557     11556     11558     11559
     11557     11556     11558     11560     11557     11556     11558     11608
     11558     11608     11611     11612     11558     11608     11611     11613
     11558     11608     11611     11614     11559     11558     11608     11609
     11559     11558     11608     11610     11559     11558     11608     11611
     11560     11558     11608     11609     11560     11558     11608     11610
     11560     11558     11608     11611     11561     11564     11567     11568
     11561     11564     11567     11569     11561     11564     11567     11570
     11562     11561     11564     11565     11562     11561     11564     11566
     11562     11561     11564     11567     11563     11561     11564     11565
     11563     11561     11564     11566     11563     11561     11564     11567
     11564     11567     11570     11571     11564     11567     11570     11572
     11564     11567     11570     11573     11565     11564     11567     11568
     11565     11564     11567     11569     11565     11564     11567     11570
     11566     11564     11567     11568     11566     11564     11567     11569
     11566     11564     11567     11570     11567     11570     11573     11574
     11567     11570     11573     11575     11567     11570     11573     11576
     11568     11567     11570     11571     11568     11567     11570     11572
     11568     11567     11570     11573     11569     11567     11570     11571
     11569     11567     11570     11572     11569     11567     11570     11573
     11570     11573     11576     11577     11570     11573     11576     11578
     11570     11573     11576     11579     11571     11570     11573     11574
     11571     11570     11573     11575     11571     11570     11573     11576
     11572     11570     11573     11574     11572     11570     11573     11575
     11572     11570     11573     11576     11573     11576     11579     11580
     11573     11576     11579     11581     11574     11573     11576     11577
     11574     11573     11576     11578     11574     11573     11576     11579
     11575     11573     11576     11577     11575     11573     11576     11578
     11575     11573     11576     11579     11576     11579     11581     11582
     11576     11579     11581     11583     11577     11576     11579     11580
     11577     11576     11579     11581     11578     11576     11579     11580
     11578     11576     11579     11581     11579     11581     11583     11584
     11579     11581     11583     11585     11579     11581     11583     11586
     11580     11579     11581     11582     11580     11579     11581     11583
     11581     11583     11586     11587     11581     11583     11586     11588
     11581     11583     11586     11589     11582     11581     11583     11584
     11582     11581     11583     11585     11582     11581     11583     11586
     11583     11586     11589     11590     11583     11586     11589     11591
     11583     11586     11589     11592     11584     11583     11586     11587
     11584     11583     11586     11588     11584     11583     11586     11589
     11585     11583     11586     11587     11585     11583     11586     11588
     11585     11583     11586     11589     11586     11589     11592     11593
     11586     11589     11592     11594     11586     11589     11592     11595
     11587     11586     11589     11590     11587     11586     11589     11591
     11587     11586     11589     11592     11588     11586     11589     11590
     11588     11586     11589     11591     11588     11586     11589     11592
     11589     11592     11595     11596     11589     11592     11595     11597
     11589     11592     11595     11598     11590     11589     11592     11593
     11590     11589     11592     11594     11590     11589     11592     11595
     11591     11589     11592     11593     11591     11589     11592     11594
     11591     11589     11592     11595     11592     11595     11598     11599
     11592     11595     11598     11600     11592     11595     11598     11601
     11593     11592     11595     11596     11593     11592     11595     11597
     11593     11592     11595     11598     11594     11592     11595     11596
     11594     11592     11595     11597     11594     11592     11595     11598
     11595     11598     11601     11602     11595     11598     11601     11603
     11595     11598     11601     11604     11596     11595     11598     11599
     11596     11595     11598     11600     11596     11595     11598     11601
     11597     11595     11598     11599     11597     11595     11598     11600
     11597     11595     11598     11601     11598     11601     11604     11605
     11598     11601     11604     11606     11598     11601     11604     11607
     11599     11598     11601     11602     11599     11598     11601     11603
     11599     11598     11601     11604     11600     11598     11601     11602
     11600     11598     11601     11603     11600     11598     11601     11604
     11602     11601     11604     11605     11602     11601     11604     11606
     11602     11601     11604     11607     11603     11601     11604     11605
     11603     11601     11604     11606     11603     11601     11604     11607
     11608     11611     11614     11615     11608     11611     11614     11616
     11608     11611     11614     11617     11609     11608     11611     11612
     11609     11608     11611     11613     11609     11608     11611     11614
     11610     11608     11611     11612     11610     11608     11611     11613
     11610     11608     11611     11614     11611     11614     11617     11618
     11611     11614     11617     11619     11611     11614     11617     11620
     11612     11611     11614     11615     11612     11611     11614     11616
     11612     11611     11614     11617     11613     11611     11614     11615
     11613     11611     11614     11616     11613     11611     11614     11617
     11614     11617     11620     11621     11614     11617     11620     11622
     11614     11617     11620     11623     11615     11614     11617     11618
     11615     11614     11617     11619     11615     11614     11617     11620
     11616     11614     11617     11618     11616     11614     11617     11619
     11616     11614     11617     11620     11617     11620     11623     11624
     11617     11620     11623     11625     11617     11620     11623     11626
     11618     11617     11620     11621     11618     11617     11620     11622
     11618     11617     11620     11623     11619     11617     11620     11621
     11619     11617     11620     11622     11619     11617     11620     11623
     11620     11623     11626     11627     11620     11623     11626     11628
     11620     11623     11626     11629     11621     11620     11623     11624
     11621     11620     11623     11625     11621     11620     11623     11626
     11622     11620     11623     11624     11622     11620     11623     11625
     11622     11620     11623     11626     11623     11626     11629     11630
     11623     11626     11629     11631     11623     11626     11629     11632
     11624     11623     11626     11627     11624     11623     11626     11628
     11624     11623     11626     11629     11625     11623     11626     11627
     11625     11623     11626     11628     11625     11623     11626     11629
     11626     11629     11632     11633     11626     11629     11632     11634
     11626     11629     11632     11635     11627     11626     11629     11630
     11627     11626     11629     11631     11627     11626     11629     11632
     11628     11626     11629     11630     11628     11626     11629     11631
     11628     11626     11629     11632     11629     11632     11635     11636
     11629     11632     11635     11637     11629     11632     11635     11638
     11630     11629     11632     11633     11630     11629     11632     11634
     11630     11629     11632     11635     11631     11629     11632     11633
     11631     11629     11632     11634     11631     11629     11632     11635
     11632     11635     11638     11639     11632     11635     11638     11640
     11632     11635     11638     11641     11633     11632     11635     11636
     11633     11632     11635     11637     11633     11632     11635     11638
     11634     11632     11635     11636     11634     11632     11635     11637
     11634     11632     11635     11638     11635     11638     11641     11642
     11635     11638     11641     11643     11635     11638     11641     11644
     11636     11635     11638     11639     11636     11635     11638     11640
     11636     11635     11638     11641     11637     11635     11638     11639
     11637     11635     11638     11640     11637     11635     11638     11641
     11638     11641     11644     11645     11638     11641     11644     11646
     11638     11641     11644     11647     11639     11638     11641     11642
     11639     11638     11641     11643     11639     11638     11641     11644
     11640     11638     11641     11642     11640     11638     11641     11643
     11640     11638     11641     11644     11641     11644     11647     11648
     11641     11644     11647     11649     11641     11644     11647     11650
     11642     11641     11644     11645     11642     11641     11644     11646
     11642     11641     11644     11647     11643     11641     11644     11645
     11643     11641     11644     11646     11643     11641     11644     11647
     11645     11644     11647     11648     11645     11644     11647     11649
     11645     11644     11647     11650     11646     11644     11647     11648
     11646     11644     11647     11649     11646     11644     11647     11650
     11651     11652     11667     11668     11651     11652     11667     11669
     11651     11652     11667     11673     11652     11651     11655     11656
     11652     11651     11655     11657     11652     11651     11655     11658
     11652     11651     11659     11660     11652     11651     11659     11661
     11652     11651     11659     11662     11652     11651     11663     11664
     11652     11651     11663     11665     11652     11651     11663     11666
     11652     11667     11673     11670     11653     11652     11651     11655
     11653     11652     11651     11659     11653     11652     11651     11663
     11653     11652     11667     11668     11653     11652     11667     11669
     11653     11652     11667     11673     11654     11652     11651     11655
     11654     11652     11651     11659     11654     11652     11651     11663
     11654     11652     11667     11668     11654     11652     11667     11669
     11654     11652     11667     11673     11655     11651     11652     11667
     11655     11651     11659     11660     11655     11651     11659     11661
     11655     11651     11659     11662     11655     11651     11663     11664
     11655     11651     11663     11665     11655     11651     11663     11666
     11656     11655     11651     11659     11656     11655     11651     11663
     11657     11655     11651     11659     11657     11655     11651     11663
     11658     11655     11651     11659     11658     11655     11651     11663
     11659     11651     11652     11667     11659     11651     11663     11664
     11659     11651     11663     11665     11659     11651     11663     11666
     11660     11659     11651     11663     11661     11659     11651     11663
     11662     11659     11651     11663     11663     11651     11652     11667
     11667     11673     11670     11671     11667     11673     11670     11672
     11667     11673     11670     11674     11668     11667     11673     11670
     11669     11667     11673     11670     11670     11674     11675     11676
     11670     11674     11675     11677     11670     11674     11675     11678
     11671     11670     11674     11675     11672     11670     11674     11675
     11673     11670     11674     11675     11674     11675     11678     11679
     11674     11675     11678     11680     11674     11675     11678     11686
     11675     11678     11680     11681     11675     11678     11686     11687
     11675     11678     11686     11688     11675     11678     11686     11689
     11676     11675     11678     11679     11676     11675     11678     11680
     11676     11675     11678     11686     11677     11675     11678     11679
     11677     11675     11678     11680     11677     11675     11678     11686
     11678     11680     11681     11682     11678     11680     11681     11683
     11678     11686     11689     11690     11679     11678     11680     11681
     11679     11678     11686     11687     11679     11678     11686     11688
     11679     11678     11686     11689     11680     11678     11686     11687
     11680     11678     11686     11688     11680     11678     11686     11689
     11680     11681     11683     11684     11680     11681     11683     11685
     11680     11681     11683     11695     11681     11680     11678     11686
     11681     11683     11695     11696     11681     11683     11695     11697
     11681     11683     11695     11698     11682     11681     11683     11684
     11682     11681     11683     11685     11682     11681     11683     11695
     11683     11695     11698     11699     11683     11695     11698     11700
     11683     11695     11698     11701     11684     11683     11695     11696
     11684     11683     11695     11697     11684     11683     11695     11698
     11685     11683     11695     11696     11685     11683     11695     11697
     11685     11683     11695     11698     11686     11689     11690     11691
     11686     11689     11690     11692     11687     11686     11689     11690
     11688     11686     11689     11690     11689     11690     11692     11693
     11689     11690     11692     11694     11689     11690     11692     11742
     11690     11692     11742     11743     11690     11692     11742     11744
     11690     11692     11742     11745     11691     11690     11692     11693
     11691     11690     11692     11694     11691     11690     11692     11742
     11692     11742     11745     11746     11692     11742     11745     11747
     11692     11742     11745     11748     11693     11692     11742     11743
     11693     11692     11742     11744     11693     11692     11742     11745
     11694     11692     11742     11743     11694     11692     11742     11744
     11694     11692     11742     11745     11695     11698     11701     11702
     11695     11698     11701     11703     11695     11698     11701     11704
     11696     11695     11698     11699     11696     11695     11698     11700
     11696     11695     11698     11701     11697     11695     11698     11699
     11697     11695     11698     11700     11697     11695     11698     11701
     11698     11701     11704     11705     11698     11701     11704     11706
     11698     11701     11704     11707     11699     11698     11701     11702
     11699     11698     11701     11703     11699     11698     11701     11704
     11700     11698     11701     11702     11700     11698     11701     11703
     11700     11698     11701     11704     11701     11704     11707     11708
     11701     11704     11707     11709     11701     11704     11707     11710
     11702     11701     11704     11705     11702     11701     11704     11706
     11702     11701     11704     11707     11703     11701     11704     11705
     11703     11701     11704     11706     11703     11701     11704     11707
     11704     11707     11710     11711     11704     11707     11710     11712
     11704     11707     11710     11713     11705     11704     11707     11708
     11705     11704     11707     11709     11705     11704     11707     11710
     11706     11704     11707     11708     11706     11704     11707     11709
     11706     11704     11707     11710     11707     11710     11713     11714
     11707     11710     11713     11715     11708     11707     11710     11711
     11708     11707     11710     11712     11708     11707     11710     11713
     11709     11707     11710     11711     11709     11707     11710     11712
     11709     11707     11710     11713     11710     11713     11715     11716
     11710     11713     11715     11717     11711     11710     11713     11714
     11711     11710     11713     11715     11712     11710     11713     11714
     11712     11710     11713     11715     11713     11715     11717     11718
     11713     11715     11717     11719     11713     11715     11717     11720
     11714     11713     11715     11716     11714     11713     11715     11717
     11715     11717     11720     11721     11715     11717     11720     11722
     11715     11717     11720     11723     11716     11715     11717     11718
     11716     11715     11717     11719     11716     11715     11717     11720
     11717     11720     11723     11724     11717     11720     11723     11725
     11717     11720     11723     11726     11718     11717     11720     11721
     11718     11717     11720     11722     11718     11717     11720     11723
     11719     11717     11720     11721     11719     11717     11720     11722
     11719     11717     11720     11723     11720     11723     11726     11727
     11720     11723     11726     11728     11720     11723     11726     11729
     11721     11720     11723     11724     11721     11720     11723     11725
     11721     11720     11723     11726     11722     11720     11723     11724
     11722     11720     11723     11725     11722     11720     11723     11726
     11723     11726     11729     11730     11723     11726     11729     11731
     11723     11726     11729     11732     11724     11723     11726     11727
     11724     11723     11726     11728     11724     11723     11726     11729
     11725     11723     11726     11727     11725     11723     11726     11728
     11725     11723     11726     11729     11726     11729     11732     11733
     11726     11729     11732     11734     11726     11729     11732     11735
     11727     11726     11729     11730     11727     11726     11729     11731
     11727     11726     11729     11732     11728     11726     11729     11730
     11728     11726     11729     11731     11728     11726     11729     11732
     11729     11732     11735     11736     11729     11732     11735     11737
     11729     11732     11735     11738     11730     11729     11732     11733
     11730     11729     11732     11734     11730     11729     11732     11735
     11731     11729     11732     11733     11731     11729     11732     11734
     11731     11729     11732     11735     11732     11735     11738     11739
     11732     11735     11738     11740     11732     11735     11738     11741
     11733     11732     11735     11736     11733     11732     11735     11737
     11733     11732     11735     11738     11734     11732     11735     11736
     11734     11732     11735     11737     11734     11732     11735     11738
     11736     11735     11738     11739     11736     11735     11738     11740
     11736     11735     11738     11741     11737     11735     11738     11739
     11737     11735     11738     11740     11737     11735     11738     11741
     11742     11745     11748     11749     11742     11745     11748     11750
     11742     11745     11748     11751     11743     11742     11745     11746
     11743     11742     11745     11747     11743     11742     11745     11748
     11744     11742     11745     11746     11744     11742     11745     11747
     11744     11742     11745     11748     11745     11748     11751     11752
     11745     11748     11751     11753     11745     11748     11751     11754
     11746     11745     11748     11749     11746     11745     11748     11750
     11746     11745     11748     11751     11747     11745     11748     11749
     11747     11745     11748     11750     11747     11745     11748     11751
     11748     11751     11754     11755     11748     11751     11754     11756
     11748     11751     11754     11757     11749     11748     11751     11752
     11749     11748     11751     11753     11749     11748     11751     11754
     11750     11748     11751     11752     11750     11748     11751     11753
     11750     11748     11751     11754     11751     11754     11757     11758
     11751     11754     11757     11759     11751     11754     11757     11760
     11752     11751     11754     11755     11752     11751     11754     11756
     11752     11751     11754     11757     11753     11751     11754     11755
     11753     11751     11754     11756     11753     11751     11754     11757
     11754     11757     11760     11761     11754     11757     11760     11762
     11754     11757     11760     11763     11755     11754     11757     11758
     11755     11754     11757     11759     11755     11754     11757     11760
     11756     11754     11757     11758     11756     11754     11757     11759
     11756     11754     11757     11760     11757     11760     11763     11764
     11757     11760     11763     11765     11757     11760     11763     11766
     11758     11757     11760     11761     11758     11757     11760     11762
     11758     11757     11760     11763     11759     11757     11760     11761
     11759     11757     11760     11762     11759     11757     11760     11763
     11760     11763     11766     11767     11760     11763     11766     11768
     11760     11763     11766     11769     11761     11760     11763     11764
     11761     11760     11763     11765     11761     11760     11763     11766
     11762     11760     11763     11764     11762     11760     11763     11765
     11762     11760     11763     11766     11763     11766     11769     11770
     11763     11766     11769     11771     11763     11766     11769     11772
     11764     11763     11766     11767     11764     11763     11766     11768
     11764     11763     11766     11769     11765     11763     11766     11767
     11765     11763     11766     11768     11765     11763     11766     11769
     11766     11769     11772     11773     11766     11769     11772     11774
     11766     11769     11772     11775     11767     11766     11769     11770
     11767     11766     11769     11771     11767     11766     11769     11772
     11768     11766     11769     11770     11768     11766     11769     11771
     11768     11766     11769     11772     11769     11772     11775     11776
     11769     11772     11775     11777     11769     11772     11775     11778
     11770     11769     11772     11773     11770     11769     11772     11774
     11770     11769     11772     11775     11771     11769     11772     11773
     11771     11769     11772     11774     11771     11769     11772     11775
     11772     11775     11778     11779     11772     11775     11778     11780
     11772     11775     11778     11781     11773     11772     11775     11776
     11773     11772     11775     11777     11773     11772     11775     11778
     11774     11772     11775     11776     11774     11772     11775     11777
     11774     11772     11775     11778     11775     11778     11781     11782
     11775     11778     11781     11783     11775     11778     11781     11784
     11776     11775     11778     11779     11776     11775     11778     11780
     11776     11775     11778     11781     11777     11775     11778     11779
     11777     11775     11778     11780     11777     11775     11778     11781
     11779     11778     11781     11782     11779     11778     11781     11783
     11779     11778     11781     11784     11780     11778     11781     11782
     11780     11778     11781     11783     11780     11778     11781     11784
     11785     11786     11801     11802     11785     11786     11801     11803
     11785     11786     11801     11807     11786     11785     11789     11790
     11786     11785     11789     11791     11786     11785     11789     11792
     11786     11785     11793     11794     11786     11785     11793     11795
     11786     11785     11793     11796     11786     11785     11797     11798
     11786     11785     11797     11799     11786     11785     11797     11800
     11786     11801     11807     11804     11787     11786     11785     11789
     11787     11786     11785     11793     11787     11786     11785     11797
     11787     11786     11801     11802     11787     11786     11801     11803
     11787     11786     11801     11807     11788     11786     11785     11789
     11788     11786     11785     11793     11788     11786     11785     11797
     11788     11786     11801     11802     11788     11786     11801     11803
     11788     11786     11801     11807     11789     11785     11786     11801
     11789     11785     11793     11794     11789     11785     11793     11795
     11789     11785     11793     11796     11789     11785     11797     11798
     11789     11785     11797     11799     11789     11785     11797     11800
     11790     11789     11785     11793     11790     11789     11785     11797
     11791     11789     11785     11793     11791     11789     11785     11797
     11792     11789     11785     11793     11792     11789     11785     11797
     11793     11785     11786     11801     11793     11785     11797     11798
     11793     11785     11797     11799     11793     11785     11797     11800
     11794     11793     11785     11797     11795     11793     11785     11797
     11796     11793     11785     11797     11797     11785     11786     11801
     11801     11807     11804     11805     11801     11807     11804     11806
     11801     11807     11804     11808     11802     11801     11807     11804
     11803     11801     11807     11804     11804     11808     11809     11810
     11804     11808     11809     11811     11804     11808     11809     11812
     11805     11804     11808     11809     11806     11804     11808     11809
     11807     11804     11808     11809     11808     11809     11812     11813
     11808     11809     11812     11814     11808     11809     11812     11820
     11809     11812     11814     11815     11809     11812     11820     11821
     11809     11812     11820     11822     11809     11812     11820     11823
     11810     11809     11812     11813     11810     11809     11812     11814
     11810     11809     11812     11820     11811     11809     11812     11813
     11811     11809     11812     11814     11811     11809     11812     11820
     11812     11814     11815     11816     11812     11814     11815     11817
     11812     11820     11823     11824     11813     11812     11814     11815
     11813     11812     11820     11821     11813     11812     11820     11822
     11813     11812     11820     11823     11814     11812     11820     11821
     11814     11812     11820     11822     11814     11812     11820     11823
     11814     11815     11817     11818     11814     11815     11817     11819
     11814     11815     11817     11829     11815     11814     11812     11820
     11815     11817     11829     11830     11815     11817     11829     11831
     11815     11817     11829     11832     11816     11815     11817     11818
     11816     11815     11817     11819     11816     11815     11817     11829
     11817     11829     11832     11833     11817     11829     11832     11834
     11817     11829     11832     11835     11818     11817     11829     11830
     11818     11817     11829     11831     11818     11817     11829     11832
     11819     11817     11829     11830     11819     11817     11829     11831
     11819     11817     11829     11832     11820     11823     11824     11825
     11820     11823     11824     11826     11821     11820     11823     11824
     11822     11820     11823     11824     11823     11824     11826     11827
     11823     11824     11826     11828     11823     11824     11826     11876
     11824     11826     11876     11877     11824     11826     11876     11878
     11824     11826     11876     11879     11825     11824     11826     11827
     11825     11824     11826     11828     11825     11824     11826     11876
     11826     11876     11879     11880     11826     11876     11879     11881
     11826     11876     11879     11882     11827     11826     11876     11877
     11827     11826     11876     11878     11827     11826     11876     11879
     11828     11826     11876     11877     11828     11826     11876     11878
     11828     11826     11876     11879     11829     11832     11835     11836
     11829     11832     11835     11837     11829     11832     11835     11838
     11830     11829     11832     11833     11830     11829     11832     11834
     11830     11829     11832     11835     11831     11829     11832     11833
     11831     11829     11832     11834     11831     11829     11832     11835
     11832     11835     11838     11839     11832     11835     11838     11840
     11832     11835     11838     11841     11833     11832     11835     11836
     11833     11832     11835     11837     11833     11832     11835     11838
     11834     11832     11835     11836     11834     11832     11835     11837
     11834     11832     11835     11838     11835     11838     11841     11842
     11835     11838     11841     11843     11835     11838     11841     11844
     11836     11835     11838     11839     11836     11835     11838     11840
     11836     11835     11838     11841     11837     11835     11838     11839
     11837     11835     11838     11840     11837     11835     11838     11841
     11838     11841     11844     11845     11838     11841     11844     11846
     11838     11841     11844     11847     11839     11838     11841     11842
     11839     11838     11841     11843     11839     11838     11841     11844
     11840     11838     11841     11842     11840     11838     11841     11843
     11840     11838     11841     11844     11841     11844     11847     11848
     11841     11844     11847     11849     11842     11841     11844     11845
     11842     11841     11844     11846     11842     11841     11844     11847
     11843     11841     11844     11845     11843     11841     11844     11846
     11843     11841     11844     11847     11844     11847     11849     11850
     11844     11847     11849     11851     11845     11844     11847     11848
     11845     11844     11847     11849     11846     11844     11847     11848
     11846     11844     11847     11849     11847     11849     11851     11852
     11847     11849     11851     11853     11847     11849     11851     11854
     11848     11847     11849     11850     11848     11847     11849     11851
     11849     11851     11854     11855     11849     11851     11854     11856
     11849     11851     11854     11857     11850     11849     11851     11852
     11850     11849     11851     11853     11850     11849     11851     11854
     11851     11854     11857     11858     11851     11854     11857     11859
     11851     11854     11857     11860     11852     11851     11854     11855
     11852     11851     11854     11856     11852     11851     11854     11857
     11853     11851     11854     11855     11853     11851     11854     11856
     11853     11851     11854     11857     11854     11857     11860     11861
     11854     11857     11860     11862     11854     11857     11860     11863
     11855     11854     11857     11858     11855     11854     11857     11859
     11855     11854     11857     11860     11856     11854     11857     11858
     11856     11854     11857     11859     11856     11854     11857     11860
     11857     11860     11863     11864     11857     11860     11863     11865
     11857     11860     11863     11866     11858     11857     11860     11861
     11858     11857     11860     11862     11858     11857     11860     11863
     11859     11857     11860     11861     11859     11857     11860     11862
     11859     11857     11860     11863     11860     11863     11866     11867
     11860     11863     11866     11868     11860     11863     11866     11869
     11861     11860     11863     11864     11861     11860     11863     11865
     11861     11860     11863     11866     11862     11860     11863     11864
     11862     11860     11863     11865     11862     11860     11863     11866
     11863     11866     11869     11870     11863     11866     11869     11871
     11863     11866     11869     11872     11864     11863     11866     11867
     11864     11863     11866     11868     11864     11863     11866     11869
     11865     11863     11866     11867     11865     11863     11866     11868
     11865     11863     11866     11869     11866     11869     11872     11873
     11866     11869     11872     11874     11866     11869     11872     11875
     11867     11866     11869     11870     11867     11866     11869     11871
     11867     11866     11869     11872     11868     11866     11869     11870
     11868     11866     11869     11871     11868     11866     11869     11872
     11870     11869     11872     11873     11870     11869     11872     11874
     11870     11869     11872     11875     11871     11869     11872     11873
     11871     11869     11872     11874     11871     11869     11872     11875
     11876     11879     11882     11883     11876     11879     11882     11884
     11876     11879     11882     11885     11877     11876     11879     11880
     11877     11876     11879     11881     11877     11876     11879     11882
     11878     11876     11879     11880     11878     11876     11879     11881
     11878     11876     11879     11882     11879     11882     11885     11886
     11879     11882     11885     11887     11879     11882     11885     11888
     11880     11879     11882     11883     11880     11879     11882     11884
     11880     11879     11882     11885     11881     11879     11882     11883
     11881     11879     11882     11884     11881     11879     11882     11885
     11882     11885     11888     11889     11882     11885     11888     11890
     11882     11885     11888     11891     11883     11882     11885     11886
     11883     11882     11885     11887     11883     11882     11885     11888
     11884     11882     11885     11886     11884     11882     11885     11887
     11884     11882     11885     11888     11885     11888     11891     11892
     11885     11888     11891     11893     11885     11888     11891     11894
     11886     11885     11888     11889     11886     11885     11888     11890
     11886     11885     11888     11891     11887     11885     11888     11889
     11887     11885     11888     11890     11887     11885     11888     11891
     11888     11891     11894     11895     11888     11891     11894     11896
     11888     11891     11894     11897     11889     11888     11891     11892
     11889     11888     11891     11893     11889     11888     11891     11894
     11890     11888     11891     11892     11890     11888     11891     11893
     11890     11888     11891     11894     11891     11894     11897     11898
     11891     11894     11897     11899     11891     11894     11897     11900
     11892     11891     11894     11895     11892     11891     11894     11896
     11892     11891     11894     11897     11893     11891     11894     11895
     11893     11891     11894     11896     11893     11891     11894     11897
     11894     11897     11900     11901     11894     11897     11900     11902
     11894     11897     11900     11903     11895     11894     11897     11898
     11895     11894     11897     11899     11895     11894     11897     11900
     11896     11894     11897     11898     11896     11894     11897     11899
     11896     11894     11897     11900     11897     11900     11903     11904
     11897     11900     11903     11905     11897     11900     11903     11906
     11898     11897     11900     11901     11898     11897     11900     11902
     11898     11897     11900     11903     11899     11897     11900     11901
     11899     11897     11900     11902     11899     11897     11900     11903
     11900     11903     11906     11907     11900     11903     11906     11908
     11900     11903     11906     11909     11901     11900     11903     11904
     11901     11900     11903     11905     11901     11900     11903     11906
     11902     11900     11903     11904     11902     11900     11903     11905
     11902     11900     11903     11906     11903     11906     11909     11910
     11903     11906     11909     11911     11903     11906     11909     11912
     11904     11903     11906     11907     11904     11903     11906     11908
     11904     11903     11906     11909     11905     11903     11906     11907
     11905     11903     11906     11908     11905     11903     11906     11909
     11906     11909     11912     11913     11906     11909     11912     11914
     11906     11909     11912     11915     11907     11906     11909     11910
     11907     11906     11909     11911     11907     11906     11909     11912
     11908     11906     11909     11910     11908     11906     11909     11911
     11908     11906     11909     11912     11909     11912     11915     11916
     11909     11912     11915     11917     11909     11912     11915     11918
     11910     11909     11912     11913     11910     11909     11912     11914
     11910     11909     11912     11915     11911     11909     11912     11913
     11911     11909     11912     11914     11911     11909     11912     11915
     11913     11912     11915     11916     11913     11912     11915     11917
     11913     11912     11915     11918     11914     11912     11915     11916
     11914     11912     11915     11917     11914     11912     11915     11918
     11919     11920     11935     11936     11919     11920     11935     11937
     11919     11920     11935     11941     11920     11919     11923     11924
     11920     11919     11923     11925     11920     11919     11923     11926
     11920     11919     11927     11928     11920     11919     11927     11929
     11920     11919     11927     11930     11920     11919     11931     11932
     11920     11919     11931     11933     11920     11919     11931     11934
     11920     11935     11941     11938     11921     11920     11919     11923
     11921     11920     11919     11927     11921     11920     11919     11931
     11921     11920     11935     11936     11921     11920     11935     11937
     11921     11920     11935     11941     11922     11920     11919     11923
     11922     11920     11919     11927     11922     11920     11919     11931
     11922     11920     11935     11936     11922     11920     11935     11937
     11922     11920     11935     11941     11923     11919     11920     11935
     11923     11919     11927     11928     11923     11919     11927     11929
     11923     11919     11927     11930     11923     11919     11931     11932
     11923     11919     11931     11933     11923     11919     11931     11934
     11924     11923     11919     11927     11924     11923     11919     11931
     11925     11923     11919     11927     11925     11923     11919     11931
     11926     11923     11919     11927     11926     11923     11919     11931
     11927     11919     11920     11935     11927     11919     11931     11932
     11927     11919     11931     11933     11927     11919     11931     11934
     11928     11927     11919     11931     11929     11927     11919     11931
     11930     11927     11919     11931     11931     11919     11920     11935
     11935     11941     11938     11939     11935     11941     11938     11940
     11935     11941     11938     11942     11936     11935     11941     11938
     11937     11935     11941     11938     11938     11942     11943     11944
     11938     11942     11943     11945     11938     11942     11943     11946
     11939     11938     11942     11943     11940     11938     11942     11943
     11941     11938     11942     11943     11942     11943     11946     11947
     11942     11943     11946     11948     11942     11943     11946     11954
     11943     11946     11948     11949     11943     11946     11954     11955
     11943     11946     11954     11956     11943     11946     11954     11957
     11944     11943     11946     11947     11944     11943     11946     11948
     11944     11943     11946     11954     11945     11943     11946     11947
     11945     11943     11946     11948     11945     11943     11946     11954
     11946     11948     11949     11950     11946     11948     11949     11951
     11946     11954     11957     11958     11947     11946     11948     11949
     11947     11946     11954     11955     11947     11946     11954     11956
     11947     11946     11954     11957     11948     11946     11954     11955
     11948     11946     11954     11956     11948     11946     11954     11957
     11948     11949     11951     11952     11948     11949     11951     11953
     11948     11949     11951     11963     11949     11948     11946     11954
     11949     11951     11963     11964     11949     11951     11963     11965
     11949     11951     11963     11966     11950     11949     11951     11952
     11950     11949     11951     11953     11950     11949     11951     11963
     11951     11963     11966     11967     11951     11963     11966     11968
     11951     11963     11966     11969     11952     11951     11963     11964
     11952     11951     11963     11965     11952     11951     11963     11966
     11953     11951     11963     11964     11953     11951     11963     11965
     11953     11951     11963     11966     11954     11957     11958     11959
     11954     11957     11958     11960     11955     11954     11957     11958
     11956     11954     11957     11958     11957     11958     11960     11961
     11957     11958     11960     11962     11957     11958     11960     12010
     11958     11960     12010     12011     11958     11960     12010     12012
     11958     11960     12010     12013     11959     11958     11960     11961
     11959     11958     11960     11962     11959     11958     11960     12010
     11960     12010     12013     12014     11960     12010     12013     12015
     11960     12010     12013     12016     11961     11960     12010     12011
     11961     11960     12010     12012     11961     11960     12010     12013
     11962     11960     12010     12011     11962     11960     12010     12012
     11962     11960     12010     12013     11963     11966     11969     11970
     11963     11966     11969     11971     11963     11966     11969     11972
     11964     11963     11966     11967     11964     11963     11966     11968
     11964     11963     11966     11969     11965     11963     11966     11967
     11965     11963     11966     11968     11965     11963     11966     11969
     11966     11969     11972     11973     11966     11969     11972     11974
     11966     11969     11972     11975     11967     11966     11969     11970
     11967     11966     11969     11971     11967     11966     11969     11972
     11968     11966     11969     11970     11968     11966     11969     11971
     11968     11966     11969     11972     11969     11972     11975     11976
     11969     11972     11975     11977     11969     11972     11975     11978
     11970     11969     11972     11973     11970     11969     11972     11974
     11970     11969     11972     11975     11971     11969     11972     11973
     11971     11969     11972     11974     11971     11969     11972     11975
     11972     11975     11978     11979     11972     11975     11978     11980
     11972     11975     11978     11981     11973     11972     11975     11976
     11973     11972     11975     11977     11973     11972     11975     11978
     11974     11972     11975     11976     11974     11972     11975     11977
     11974     11972     11975     11978     11975     11978     11981     11982
     11975     11978     11981     11983     11976     11975     11978     11979
     11976     11975     11978     11980     11976     11975     11978     11981
     11977     11975     11978     11979     11977     11975     11978     11980
     11977     11975     11978     11981     11978     11981     11983     11984
     11978     11981     11983     11985     11979     11978     11981     11982
     11979     11978     11981     11983     11980     11978     11981     11982
     11980     11978     11981     11983     11981     11983     11985     11986
     11981     11983     11985     11987     11981     11983     11985     11988
     11982     11981     11983     11984     11982     11981     11983     11985
     11983     11985     11988     11989     11983     11985     11988     11990
     11983     11985     11988     11991     11984     11983     11985     11986
     11984     11983     11985     11987     11984     11983     11985     11988
     11985     11988     11991     11992     11985     11988     11991     11993
     11985     11988     11991     11994     11986     11985     11988     11989
     11986     11985     11988     11990     11986     11985     11988     11991
     11987     11985     11988     11989     11987     11985     11988     11990
     11987     11985     11988     11991     11988     11991     11994     11995
     11988     11991     11994     11996     11988     11991     11994     11997
     11989     11988     11991     11992     11989     11988     11991     11993
     11989     11988     11991     11994     11990     11988     11991     11992
     11990     11988     11991     11993     11990     11988     11991     11994
     11991     11994     11997     11998     11991     11994     11997     11999
     11991     11994     11997     12000     11992     11991     11994     11995
     11992     11991     11994     11996     11992     11991     11994     11997
     11993     11991     11994     11995     11993     11991     11994     11996
     11993     11991     11994     11997     11994     11997     12000     12001
     11994     11997     12000     12002     11994     11997     12000     12003
     11995     11994     11997     11998     11995     11994     11997     11999
     11995     11994     11997     12000     11996     11994     11997     11998
     11996     11994     11997     11999     11996     11994     11997     12000
     11997     12000     12003     12004     11997     12000     12003     12005
     11997     12000     12003     12006     11998     11997     12000     12001
     11998     11997     12000     12002     11998     11997     12000     12003
     11999     11997     12000     12001     11999     11997     12000     12002
     11999     11997     12000     12003     12000     12003     12006     12007
     12000     12003     12006     12008     12000     12003     12006     12009
     12001     12000     12003     12004     12001     12000     12003     12005
     12001     12000     12003     12006     12002     12000     12003     12004
     12002     12000     12003     12005     12002     12000     12003     12006
     12004     12003     12006     12007     12004     12003     12006     12008
     12004     12003     12006     12009     12005     12003     12006     12007
     12005     12003     12006     12008     12005     12003     12006     12009
     12010     12013     12016     12017     12010     12013     12016     12018
     12010     12013     12016     12019     12011     12010     12013     12014
     12011     12010     12013     12015     12011     12010     12013     12016
     12012     12010     12013     12014     12012     12010     12013     12015
     12012     12010     12013     12016     12013     12016     12019     12020
     12013     12016     12019     12021     12013     12016     12019     12022
     12014     12013     12016     12017     12014     12013     12016     12018
     12014     12013     12016     12019     12015     12013     12016     12017
     12015     12013     12016     12018     12015     12013     12016     12019
     12016     12019     12022     12023     12016     12019     12022     12024
     12016     12019     12022     12025     12017     12016     12019     12020
     12017     12016     12019     12021     12017     12016     12019     12022
     12018     12016     12019     12020     12018     12016     12019     12021
     12018     12016     12019     12022     12019     12022     12025     12026
     12019     12022     12025     12027     12019     12022     12025     12028
     12020     12019     12022     12023     12020     12019     12022     12024
     12020     12019     12022     12025     12021     12019     12022     12023
     12021     12019     12022     12024     12021     12019     12022     12025
     12022     12025     12028     12029     12022     12025     12028     12030
     12022     12025     12028     12031     12023     12022     12025     12026
     12023     12022     12025     12027     12023     12022     12025     12028
     12024     12022     12025     12026     12024     12022     12025     12027
     12024     12022     12025     12028     12025     12028     12031     12032
     12025     12028     12031     12033     12025     12028     12031     12034
     12026     12025     12028     12029     12026     12025     12028     12030
     12026     12025     12028     12031     12027     12025     12028     12029
     12027     12025     12028     12030     12027     12025     12028     12031
     12028     12031     12034     12035     12028     12031     12034     12036
     12028     12031     12034     12037     12029     12028     12031     12032
     12029     12028     12031     12033     12029     12028     12031     12034
     12030     12028     12031     12032     12030     12028     12031     12033
     12030     12028     12031     12034     12031     12034     12037     12038
     12031     12034     12037     12039     12031     12034     12037     12040
     12032     12031     12034     12035     12032     12031     12034     12036
     12032     12031     12034     12037     12033     12031     12034     12035
     12033     12031     12034     12036     12033     12031     12034     12037
     12034     12037     12040     12041     12034     12037     12040     12042
     12034     12037     12040     12043     12035     12034     12037     12038
     12035     12034     12037     12039     12035     12034     12037     12040
     12036     12034     12037     12038     12036     12034     12037     12039
     12036     12034     12037     12040     12037     12040     12043     12044
     12037     12040     12043     12045     12037     12040     12043     12046
     12038     12037     12040     12041     12038     12037     12040     12042
     12038     12037     12040     12043     12039     12037     12040     12041
     12039     12037     12040     12042     12039     12037     12040     12043
     12040     12043     12046     12047     12040     12043     12046     12048
     12040     12043     12046     12049     12041     12040     12043     12044
     12041     12040     12043     12045     12041     12040     12043     12046
     12042     12040     12043     12044     12042     12040     12043     12045
     12042     12040     12043     12046     12043     12046     12049     12050
     12043     12046     12049     12051     12043     12046     12049     12052
     12044     12043     12046     12047     12044     12043     12046     12048
     12044     12043     12046     12049     12045     12043     12046     12047
     12045     12043     12046     12048     12045     12043     12046     12049
     12047     12046     12049     12050     12047     12046     12049     12051
     12047     12046     12049     12052     12048     12046     12049     12050
     12048     12046     12049     12051     12048     12046     12049     12052
     12053     12057     12059     12060     12053     12057     12059     12061
     12053     12057     12062     12063     12053     12057     12062     12064
     12053     12057     12062     12068     12054     12053     12057     12058
     12054     12053     12057     12059     12054     12053     12057     12062
     12055     12053     12057     12058     12055     12053     12057     12059
     12055     12053     12057     12062     12056     12053     12057     12058
     12056     12053     12057     12059     12056     12053     12057     12062
     12057     12062     12068     12065     12058     12057     12059     12060
     12058     12057     12059     12061     12058     12057     12062     12063
     12058     12057     12062     12064     12058     12057     12062     12068
     12059     12057     12062     12063     12059     12057     12062     12064
     12059     12057     12062     12068     12060     12059     12057     12062
     12061     12059     12057     12062     12062     12068     12065     12066
     12062     12068     12065     12067     12062     12068     12065     12069
     12063     12062     12068     12065     12064     12062     12068     12065
     12065     12069     12070     12071     12065     12069     12070     12072
     12065     12069     12070     12073     12066     12065     12069     12070
     12067     12065     12069     12070     12068     12065     12069     12070
     12069     12070     12073     12074     12069     12070     12073     12075
     12069     12070     12073     12081     12070     12073     12075     12076
     12070     12073     12081     12082     12070     12073     12081     12083
     12070     12073     12081     12084     12071     12070     12073     12074
     12071     12070     12073     12075     12071     12070     12073     12081
     12072     12070     12073     12074     12072     12070     12073     12075
     12072     12070     12073     12081     12073     12075     12076     12077
     12073     12075     12076     12078     12073     12081     12084     12085
     12074     12073     12075     12076     12074     12073     12081     12082
     12074     12073     12081     12083     12074     12073     12081     12084
     12075     12073     12081     12082     12075     12073     12081     12083
     12075     12073     12081     12084     12075     12076     12078     12079
     12075     12076     12078     12080     12075     12076     12078     12090
     12076     12075     12073     12081     12076     12078     12090     12091
     12076     12078     12090     12092     12076     12078     12090     12093
     12077     12076     12078     12079     12077     12076     12078     12080
     12077     12076     12078     12090     12078     12090     12093     12094
     12078     12090     12093     12095     12078     12090     12093     12096
     12079     12078     12090     12091     12079     12078     12090     12092
     12079     12078     12090     12093     12080     12078     12090     12091
     12080     12078     12090     12092     12080     12078     12090     12093
     12081     12084     12085     12086     12081     12084     12085     12087
     12082     12081     12084     12085     12083     12081     12084     12085
     12084     12085     12087     12088     12084     12085     12087     12089
     12084     12085     12087     12137     12085     12087     12137     12138
     12085     12087     12137     12139     12085     12087     12137     12140
     12086     12085     12087     12088     12086     12085     12087     12089
     12086     12085     12087     12137     12087     12137     12140     12141
     12087     12137     12140     12142     12087     12137     12140     12143
     12088     12087     12137     12138     12088     12087     12137     12139
     12088     12087     12137     12140     12089     12087     12137     12138
     12089     12087     12137     12139     12089     12087     12137     12140
     12090     12093     12096     12097     12090     12093     12096     12098
     12090     12093     12096     12099     12091     12090     12093     12094
     12091     12090     12093     12095     12091     12090     12093     12096
     12092     12090     12093     12094     12092     12090     12093     12095
     12092     12090     12093     12096     12093     12096     12099     12100
     12093     12096     12099     12101     12093     12096     12099     12102
     12094     12093     12096     12097     12094     12093     12096     12098
     12094     12093     12096     12099     12095     12093     12096     12097
     12095     12093     12096     12098     12095     12093     12096     12099
     12096     12099     12102     12103     12096     12099     12102     12104
     12096     12099     12102     12105     12097     12096     12099     12100
     12097     12096     12099     12101     12097     12096     12099     12102
     12098     12096     12099     12100     12098     12096     12099     12101
     12098     12096     12099     12102     12099     12102     12105     12106
     12099     12102     12105     12107     12099     12102     12105     12108
     12100     12099     12102     12103     12100     12099     12102     12104
     12100     12099     12102     12105     12101     12099     12102     12103
     12101     12099     12102     12104     12101     12099     12102     12105
     12102     12105     12108     12109     12102     12105     12108     12110
     12103     12102     12105     12106     12103     12102     12105     12107
     12103     12102     12105     12108     12104     12102     12105     12106
     12104     12102     12105     12107     12104     12102     12105     12108
     12105     12108     12110     12111     12105     12108     12110     12112
     12106     12105     12108     12109     12106     12105     12108     12110
     12107     12105     12108     12109     12107     12105     12108     12110
     12108     12110     12112     12113     12108     12110     12112     12114
     12108     12110     12112     12115     12109     12108     12110     12111
     12109     12108     12110     12112     12110     12112     12115     12116
     12110     12112     12115     12117     12110     12112     12115     12118
     12111     12110     12112     12113     12111     12110     12112     12114
     12111     12110     12112     12115     12112     12115     12118     12119
     12112     12115     12118     12120     12112     12115     12118     12121
     12113     12112     12115     12116     12113     12112     12115     12117
     12113     12112     12115     12118     12114     12112     12115     12116
     12114     12112     12115     12117     12114     12112     12115     12118
     12115     12118     12121     12122     12115     12118     12121     12123
     12115     12118     12121     12124     12116     12115     12118     12119
     12116     12115     12118     12120     12116     12115     12118     12121
     12117     12115     12118     12119     12117     12115     12118     12120
     12117     12115     12118     12121     12118     12121     12124     12125
     12118     12121     12124     12126     12118     12121     12124     12127
     12119     12118     12121     12122     12119     12118     12121     12123
     12119     12118     12121     12124     12120     12118     12121     12122
     12120     12118     12121     12123     12120     12118     12121     12124
     12121     12124     12127     12128     12121     12124     12127     12129
     12121     12124     12127     12130     12122     12121     12124     12125
     12122     12121     12124     12126     12122     12121     12124     12127
     12123     12121     12124     12125     12123     12121     12124     12126
     12123     12121     12124     12127     12124     12127     12130     12131
     12124     12127     12130     12132     12124     12127     12130     12133
     12125     12124     12127     12128     12125     12124     12127     12129
     12125     12124     12127     12130     12126     12124     12127     12128
     12126     12124     12127     12129     12126     12124     12127     12130
     12127     12130     12133     12134     12127     12130     12133     12135
     12127     12130     12133     12136     12128     12127     12130     12131
     12128     12127     12130     12132     12128     12127     12130     12133
     12129     12127     12130     12131     12129     12127     12130     12132
     12129     12127     12130     12133     12131     12130     12133     12134
     12131     12130     12133     12135     12131     12130     12133     12136
     12132     12130     12133     12134     12132     12130     12133     12135
     12132     12130     12133     12136     12137     12140     12143     12144
     12137     12140     12143     12145     12137     12140     12143     12146
     12138     12137     12140     12141     12138     12137     12140     12142
     12138     12137     12140     12143     12139     12137     12140     12141
     12139     12137     12140     12142     12139     12137     12140     12143
     12140     12143     12146     12147     12140     12143     12146     12148
     12140     12143     12146     12149     12141     12140     12143     12144
     12141     12140     12143     12145     12141     12140     12143     12146
     12142     12140     12143     12144     12142     12140     12143     12145
     12142     12140     12143     12146     12143     12146     12149     12150
     12143     12146     12149     12151     12143     12146     12149     12152
     12144     12143     12146     12147     12144     12143     12146     12148
     12144     12143     12146     12149     12145     12143     12146     12147
     12145     12143     12146     12148     12145     12143     12146     12149
     12146     12149     12152     12153     12146     12149     12152     12154
     12146     12149     12152     12155     12147     12146     12149     12150
     12147     12146     12149     12151     12147     12146     12149     12152
     12148     12146     12149     12150     12148     12146     12149     12151
     12148     12146     12149     12152     12149     12152     12155     12156
     12149     12152     12155     12157     12149     12152     12155     12158
     12150     12149     12152     12153     12150     12149     12152     12154
     12150     12149     12152     12155     12151     12149     12152     12153
     12151     12149     12152     12154     12151     12149     12152     12155
     12152     12155     12158     12159     12152     12155     12158     12160
     12152     12155     12158     12161     12153     12152     12155     12156
     12153     12152     12155     12157     12153     12152     12155     12158
     12154     12152     12155     12156     12154     12152     12155     12157
     12154     12152     12155     12158     12155     12158     12161     12162
     12155     12158     12161     12163     12155     12158     12161     12164
     12156     12155     12158     12159     12156     12155     12158     12160
     12156     12155     12158     12161     12157     12155     12158     12159
     12157     12155     12158     12160     12157     12155     12158     12161
     12158     12161     12164     12165     12158     12161     12164     12166
     12158     12161     12164     12167     12159     12158     12161     12162
     12159     12158     12161     12163     12159     12158     12161     12164
     12160     12158     12161     12162     12160     12158     12161     12163
     12160     12158     12161     12164     12161     12164     12167     12168
     12161     12164     12167     12169     12161     12164     12167     12170
     12162     12161     12164     12165     12162     12161     12164     12166
     12162     12161     12164     12167     12163     12161     12164     12165
     12163     12161     12164     12166     12163     12161     12164     12167
     12164     12167     12170     12171     12164     12167     12170     12172
     12164     12167     12170     12173     12165     12164     12167     12168
     12165     12164     12167     12169     12165     12164     12167     12170
     12166     12164     12167     12168     12166     12164     12167     12169
     12166     12164     12167     12170     12167     12170     12173     12174
     12167     12170     12173     12175     12167     12170     12173     12176
     12168     12167     12170     12171     12168     12167     12170     12172
     12168     12167     12170     12173     12169     12167     12170     12171
     12169     12167     12170     12172     12169     12167     12170     12173
     12170     12173     12176     12177     12170     12173     12176     12178
     12170     12173     12176     12179     12171     12170     12173     12174
     12171     12170     12173     12175     12171     12170     12173     12176
     12172     12170     12173     12174     12172     12170     12173     12175
     12172     12170     12173     12176     12174     12173     12176     12177
     12174     12173     12176     12178     12174     12173     12176     12179
     12175     12173     12176     12177     12175     12173     12176     12178
     12175     12173     12176     12179     12180     12181     12196     12197
     12180     12181     12196     12198     12180     12181     12196     12202
     12181     12180     12184     12185     12181     12180     12184     12186
     12181     12180     12184     12187     12181     12180     12188     12189
     12181     12180     12188     12190     12181     12180     12188     12191
     12181     12180     12192     12193     12181     12180     12192     12194
     12181     12180     12192     12195     12181     12196     12202     12199
     12182     12181     12180     12184     12182     12181     12180     12188
     12182     12181     12180     12192     12182     12181     12196     12197
     12182     12181     12196     12198     12182     12181     12196     12202
     12183     12181     12180     12184     12183     12181     12180     12188
     12183     12181     12180     12192     12183     12181     12196     12197
     12183     12181     12196     12198     12183     12181     12196     12202
     12184     12180     12181     12196     12184     12180     12188     12189
     12184     12180     12188     12190     12184     12180     12188     12191
     12184     12180     12192     12193     12184     12180     12192     12194
     12184     12180     12192     12195     12185     12184     12180     12188
     12185     12184     12180     12192     12186     12184     12180     12188
     12186     12184     12180     12192     12187     12184     12180     12188
     12187     12184     12180     12192     12188     12180     12181     12196
     12188     12180     12192     12193     12188     12180     12192     12194
     12188     12180     12192     12195     12189     12188     12180     12192
     12190     12188     12180     12192     12191     12188     12180     12192
     12192     12180     12181     12196     12196     12202     12199     12200
     12196     12202     12199     12201     12196     12202     12199     12203
     12197     12196     12202     12199     12198     12196     12202     12199
     12199     12203     12204     12205     12199     12203     12204     12206
     12199     12203     12204     12207     12200     12199     12203     12204
     12201     12199     12203     12204     12202     12199     12203     12204
     12203     12204     12207     12208     12203     12204     12207     12209
     12203     12204     12207     12215     12204     12207     12209     12210
     12204     12207     12215     12216     12204     12207     12215     12217
     12204     12207     12215     12218     12205     12204     12207     12208
     12205     12204     12207     12209     12205     12204     12207     12215
     12206     12204     12207     12208     12206     12204     12207     12209
     12206     12204     12207     12215     12207     12209     12210     12211
     12207     12209     12210     12212     12207     12215     12218     12219
     12208     12207     12209     12210     12208     12207     12215     12216
     12208     12207     12215     12217     12208     12207     12215     12218
     12209     12207     12215     12216     12209     12207     12215     12217
     12209     12207     12215     12218     12209     12210     12212     12213
     12209     12210     12212     12214     12209     12210     12212     12224
     12210     12209     12207     12215     12210     12212     12224     12225
     12210     12212     12224     12226     12210     12212     12224     12227
     12211     12210     12212     12213     12211     12210     12212     12214
     12211     12210     12212     12224     12212     12224     12227     12228
     12212     12224     12227     12229     12212     12224     12227     12230
     12213     12212     12224     12225     12213     12212     12224     12226
     12213     12212     12224     12227     12214     12212     12224     12225
     12214     12212     12224     12226     12214     12212     12224     12227
     12215     12218     12219     12220     12215     12218     12219     12221
     12216     12215     12218     12219     12217     12215     12218     12219
     12218     12219     12221     12222     12218     12219     12221     12223
     12218     12219     12221     12271     12219     12221     12271     12272
     12219     12221     12271     12273     12219     12221     12271     12274
     12220     12219     12221     12222     12220     12219     12221     12223
     12220     12219     12221     12271     12221     12271     12274     12275
     12221     12271     12274     12276     12221     12271     12274     12277
     12222     12221     12271     12272     12222     12221     12271     12273
     12222     12221     12271     12274     12223     12221     12271     12272
     12223     12221     12271     12273     12223     12221     12271     12274
     12224     12227     12230     12231     12224     12227     12230     12232
     12224     12227     12230     12233     12225     12224     12227     12228
     12225     12224     12227     12229     12225     12224     12227     12230
     12226     12224     12227     12228     12226     12224     12227     12229
     12226     12224     12227     12230     12227     12230     12233     12234
     12227     12230     12233     12235     12227     12230     12233     12236
     12228     12227     12230     12231     12228     12227     12230     12232
     12228     12227     12230     12233     12229     12227     12230     12231
     12229     12227     12230     12232     12229     12227     12230     12233
     12230     12233     12236     12237     12230     12233     12236     12238
     12230     12233     12236     12239     12231     12230     12233     12234
     12231     12230     12233     12235     12231     12230     12233     12236
     12232     12230     12233     12234     12232     12230     12233     12235
     12232     12230     12233     12236     12233     12236     12239     12240
     12233     12236     12239     12241     12233     12236     12239     12242
     12234     12233     12236     12237     12234     12233     12236     12238
     12234     12233     12236     12239     12235     12233     12236     12237
     12235     12233     12236     12238     12235     12233     12236     12239
     12236     12239     12242     12243     12236     12239     12242     12244
     12237     12236     12239     12240     12237     12236     12239     12241
     12237     12236     12239     12242     12238     12236     12239     12240
     12238     12236     12239     12241     12238     12236     12239     12242
     12239     12242     12244     12245     12239     12242     12244     12246
     12240     12239     12242     12243     12240     12239     12242     12244
     12241     12239     12242     12243     12241     12239     12242     12244
     12242     12244     12246     12247     12242     12244     12246     12248
     12242     12244     12246     12249     12243     12242     12244     12245
     12243     12242     12244     12246     12244     12246     12249     12250
     12244     12246     12249     12251     12244     12246     12249     12252
     12245     12244     12246     12247     12245     12244     12246     12248
     12245     12244     12246     12249     12246     12249     12252     12253
     12246     12249     12252     12254     12246     12249     12252     12255
     12247     12246     12249     12250     12247     12246     12249     12251
     12247     12246     12249     12252     12248     12246     12249     12250
     12248     12246     12249     12251     12248     12246     12249     12252
     12249     12252     12255     12256     12249     12252     12255     12257
     12249     12252     12255     12258     12250     12249     12252     12253
     12250     12249     12252     12254     12250     12249     12252     12255
     12251     12249     12252     12253     12251     12249     12252     12254
     12251     12249     12252     12255     12252     12255     12258     12259
     12252     12255     12258     12260     12252     12255     12258     12261
     12253     12252     12255     12256     12253     12252     12255     12257
     12253     12252     12255     12258     12254     12252     12255     12256
     12254     12252     12255     12257     12254     12252     12255     12258
     12255     12258     12261     12262     12255     12258     12261     12263
     12255     12258     12261     12264     12256     12255     12258     12259
     12256     12255     12258     12260     12256     12255     12258     12261
     12257     12255     12258     12259     12257     12255     12258     12260
     12257     12255     12258     12261     12258     12261     12264     12265
     12258     12261     12264     12266     12258     12261     12264     12267
     12259     12258     12261     12262     12259     12258     12261     12263
     12259     12258     12261     12264     12260     12258     12261     12262
     12260     12258     12261     12263     12260     12258     12261     12264
     12261     12264     12267     12268     12261     12264     12267     12269
     12261     12264     12267     12270     12262     12261     12264     12265
     12262     12261     12264     12266     12262     12261     12264     12267
     12263     12261     12264     12265     12263     12261     12264     12266
     12263     12261     12264     12267     12265     12264     12267     12268
     12265     12264     12267     12269     12265     12264     12267     12270
     12266     12264     12267     12268     12266     12264     12267     12269
     12266     12264     12267     12270     12271     12274     12277     12278
     12271     12274     12277     12279     12271     12274     12277     12280
     12272     12271     12274     12275     12272     12271     12274     12276
     12272     12271     12274     12277     12273     12271     12274     12275
     12273     12271     12274     12276     12273     12271     12274     12277
     12274     12277     12280     12281     12274     12277     12280     12282
     12274     12277     12280     12283     12275     12274     12277     12278
     12275     12274     12277     12279     12275     12274     12277     12280
     12276     12274     12277     12278     12276     12274     12277     12279
     12276     12274     12277     12280     12277     12280     12283     12284
     12277     12280     12283     12285     12277     12280     12283     12286
     12278     12277     12280     12281     12278     12277     12280     12282
     12278     12277     12280     12283     12279     12277     12280     12281
     12279     12277     12280     12282     12279     12277     12280     12283
     12280     12283     12286     12287     12280     12283     12286     12288
     12280     12283     12286     12289     12281     12280     12283     12284
     12281     12280     12283     12285     12281     12280     12283     12286
     12282     12280     12283     12284     12282     12280     12283     12285
     12282     12280     12283     12286     12283     12286     12289     12290
     12283     12286     12289     12291     12283     12286     12289     12292
     12284     12283     12286     12287     12284     12283     12286     12288
     12284     12283     12286     12289     12285     12283     12286     12287
     12285     12283     12286     12288     12285     12283     12286     12289
     12286     12289     12292     12293     12286     12289     12292     12294
     12286     12289     12292     12295     12287     12286     12289     12290
     12287     12286     12289     12291     12287     12286     12289     12292
     12288     12286     12289     12290     12288     12286     12289     12291
     12288     12286     12289     12292     12289     12292     12295     12296
     12289     12292     12295     12297     12289     12292     12295     12298
     12290     12289     12292     12293     12290     12289     12292     12294
     12290     12289     12292     12295     12291     12289     12292     12293
     12291     12289     12292     12294     12291     12289     12292     12295
     12292     12295     12298     12299     12292     12295     12298     12300
     12292     12295     12298     12301     12293     12292     12295     12296
     12293     12292     12295     12297     12293     12292     12295     12298
     12294     12292     12295     12296     12294     12292     12295     12297
     12294     12292     12295     12298     12295     12298     12301     12302
     12295     12298     12301     12303     12295     12298     12301     12304
     12296     12295     12298     12299     12296     12295     12298     12300
     12296     12295     12298     12301     12297     12295     12298     12299
     12297     12295     12298     12300     12297     12295     12298     12301
     12298     12301     12304     12305     12298     12301     12304     12306
     12298     12301     12304     12307     12299     12298     12301     12302
     12299     12298     12301     12303     12299     12298     12301     12304
     12300     12298     12301     12302     12300     12298     12301     12303
     12300     12298     12301     12304     12301     12304     12307     12308
     12301     12304     12307     12309     12301     12304     12307     12310
     12302     12301     12304     12305     12302     12301     12304     12306
     12302     12301     12304     12307     12303     12301     12304     12305
     12303     12301     12304     12306     12303     12301     12304     12307
     12304     12307     12310     12311     12304     12307     12310     12312
     12304     12307     12310     12313     12305     12304     12307     12308
     12305     12304     12307     12309     12305     12304     12307     12310
     12306     12304     12307     12308     12306     12304     12307     12309
     12306     12304     12307     12310     12308     12307     12310     12311
     12308     12307     12310     12312     12308     12307     12310     12313
     12309     12307     12310     12311     12309     12307     12310     12312
     12309     12307     12310     12313     12314     12318     12320     12321
     12314     12318     12320     12322     12314     12318     12323     12324
     12314     12318     12323     12325     12314     12318     12323     12329
     12315     12314     12318     12319     12315     12314     12318     12320
     12315     12314     12318     12323     12316     12314     12318     12319
     12316     12314     12318     12320     12316     12314     12318     12323
     12317     12314     12318     12319     12317     12314     12318     12320
     12317     12314     12318     12323     12318     12323     12329     12326
     12319     12318     12320     12321     12319     12318     12320     12322
     12319     12318     12323     12324     12319     12318     12323     12325
     12319     12318     12323     12329     12320     12318     12323     12324
     12320     12318     12323     12325     12320     12318     12323     12329
     12321     12320     12318     12323     12322     12320     12318     12323
     12323     12329     12326     12327     12323     12329     12326     12328
     12323     12329     12326     12330     12324     12323     12329     12326
     12325     12323     12329     12326     12326     12330     12331     12332
     12326     12330     12331     12333     12326     12330     12331     12334
     12327     12326     12330     12331     12328     12326     12330     12331
     12329     12326     12330     12331     12330     12331     12334     12335
     12330     12331     12334     12336     12330     12331     12334     12342
     12331     12334     12336     12337     12331     12334     12342     12343
     12331     12334     12342     12344     12331     12334     12342     12345
     12332     12331     12334     12335     12332     12331     12334     12336
     12332     12331     12334     12342     12333     12331     12334     12335
     12333     12331     12334     12336     12333     12331     12334     12342
     12334     12336     12337     12338     12334     12336     12337     12339
     12334     12342     12345     12346     12335     12334     12336     12337
     12335     12334     12342     12343     12335     12334     12342     12344
     12335     12334     12342     12345     12336     12334     12342     12343
     12336     12334     12342     12344     12336     12334     12342     12345
     12336     12337     12339     12340     12336     12337     12339     12341
     12336     12337     12339     12351     12337     12336     12334     12342
     12337     12339     12351     12352     12337     12339     12351     12353
     12337     12339     12351     12354     12338     12337     12339     12340
     12338     12337     12339     12341     12338     12337     12339     12351
     12339     12351     12354     12355     12339     12351     12354     12356
     12339     12351     12354     12357     12340     12339     12351     12352
     12340     12339     12351     12353     12340     12339     12351     12354
     12341     12339     12351     12352     12341     12339     12351     12353
     12341     12339     12351     12354     12342     12345     12346     12347
     12342     12345     12346     12348     12343     12342     12345     12346
     12344     12342     12345     12346     12345     12346     12348     12349
     12345     12346     12348     12350     12345     12346     12348     12398
     12346     12348     12398     12399     12346     12348     12398     12400
     12346     12348     12398     12401     12347     12346     12348     12349
     12347     12346     12348     12350     12347     12346     12348     12398
     12348     12398     12401     12402     12348     12398     12401     12403
     12348     12398     12401     12404     12349     12348     12398     12399
     12349     12348     12398     12400     12349     12348     12398     12401
     12350     12348     12398     12399     12350     12348     12398     12400
     12350     12348     12398     12401     12351     12354     12357     12358
     12351     12354     12357     12359     12351     12354     12357     12360
     12352     12351     12354     12355     12352     12351     12354     12356
     12352     12351     12354     12357     12353     12351     12354     12355
     12353     12351     12354     12356     12353     12351     12354     12357
     12354     12357     12360     12361     12354     12357     12360     12362
     12354     12357     12360     12363     12355     12354     12357     12358
     12355     12354     12357     12359     12355     12354     12357     12360
     12356     12354     12357     12358     12356     12354     12357     12359
     12356     12354     12357     12360     12357     12360     12363     12364
     12357     12360     12363     12365     12357     12360     12363     12366
     12358     12357     12360     12361     12358     12357     12360     12362
     12358     12357     12360     12363     12359     12357     12360     12361
     12359     12357     12360     12362     12359     12357     12360     12363
     12360     12363     12366     12367     12360     12363     12366     12368
     12360     12363     12366     12369     12361     12360     12363     12364
     12361     12360     12363     12365     12361     12360     12363     12366
     12362     12360     12363     12364     12362     12360     12363     12365
     12362     12360     12363     12366     12363     12366     12369     12370
     12363     12366     12369     12371     12364     12363     12366     12367
     12364     12363     12366     12368     12364     12363     12366     12369
     12365     12363     12366     12367     12365     12363     12366     12368
     12365     12363     12366     12369     12366     12369     12371     12372
     12366     12369     12371     12373     12367     12366     12369     12370
     12367     12366     12369     12371     12368     12366     12369     12370
     12368     12366     12369     12371     12369     12371     12373     12374
     12369     12371     12373     12375     12369     12371     12373     12376
     12370     12369     12371     12372     12370     12369     12371     12373
     12371     12373     12376     12377     12371     12373     12376     12378
     12371     12373     12376     12379     12372     12371     12373     12374
     12372     12371     12373     12375     12372     12371     12373     12376
     12373     12376     12379     12380     12373     12376     12379     12381
     12373     12376     12379     12382     12374     12373     12376     12377
     12374     12373     12376     12378     12374     12373     12376     12379
     12375     12373     12376     12377     12375     12373     12376     12378
     12375     12373     12376     12379     12376     12379     12382     12383
     12376     12379     12382     12384     12376     12379     12382     12385
     12377     12376     12379     12380     12377     12376     12379     12381
     12377     12376     12379     12382     12378     12376     12379     12380
     12378     12376     12379     12381     12378     12376     12379     12382
     12379     12382     12385     12386     12379     12382     12385     12387
     12379     12382     12385     12388     12380     12379     12382     12383
     12380     12379     12382     12384     12380     12379     12382     12385
     12381     12379     12382     12383     12381     12379     12382     12384
     12381     12379     12382     12385     12382     12385     12388     12389
     12382     12385     12388     12390     12382     12385     12388     12391
     12383     12382     12385     12386     12383     12382     12385     12387
     12383     12382     12385     12388     12384     12382     12385     12386
     12384     12382     12385     12387     12384     12382     12385     12388
     12385     12388     12391     12392     12385     12388     12391     12393
     12385     12388     12391     12394     12386     12385     12388     12389
     12386     12385     12388     12390     12386     12385     12388     12391
     12387     12385     12388     12389     12387     12385     12388     12390
     12387     12385     12388     12391     12388     12391     12394     12395
     12388     12391     12394     12396     12388     12391     12394     12397
     12389     12388     12391     12392     12389     12388     12391     12393
     12389     12388     12391     12394     12390     12388     12391     12392
     12390     12388     12391     12393     12390     12388     12391     12394
     12392     12391     12394     12395     12392     12391     12394     12396
     12392     12391     12394     12397     12393     12391     12394     12395
     12393     12391     12394     12396     12393     12391     12394     12397
     12398     12401     12404     12405     12398     12401     12404     12406
     12398     12401     12404     12407     12399     12398     12401     12402
     12399     12398     12401     12403     12399     12398     12401     12404
     12400     12398     12401     12402     12400     12398     12401     12403
     12400     12398     12401     12404     12401     12404     12407     12408
     12401     12404     12407     12409     12401     12404     12407     12410
     12402     12401     12404     12405     12402     12401     12404     12406
     12402     12401     12404     12407     12403     12401     12404     12405
     12403     12401     12404     12406     12403     12401     12404     12407
     12404     12407     12410     12411     12404     12407     12410     12412
     12404     12407     12410     12413     12405     12404     12407     12408
     12405     12404     12407     12409     12405     12404     12407     12410
     12406     12404     12407     12408     12406     12404     12407     12409
     12406     12404     12407     12410     12407     12410     12413     12414
     12407     12410     12413     12415     12407     12410     12413     12416
     12408     12407     12410     12411     12408     12407     12410     12412
     12408     12407     12410     12413     12409     12407     12410     12411
     12409     12407     12410     12412     12409     12407     12410     12413
     12410     12413     12416     12417     12410     12413     12416     12418
     12410     12413     12416     12419     12411     12410     12413     12414
     12411     12410     12413     12415     12411     12410     12413     12416
     12412     12410     12413     12414     12412     12410     12413     12415
     12412     12410     12413     12416     12413     12416     12419     12420
     12413     12416     12419     12421     12413     12416     12419     12422
     12414     12413     12416     12417     12414     12413     12416     12418
     12414     12413     12416     12419     12415     12413     12416     12417
     12415     12413     12416     12418     12415     12413     12416     12419
     12416     12419     12422     12423     12416     12419     12422     12424
     12416     12419     12422     12425     12417     12416     12419     12420
     12417     12416     12419     12421     12417     12416     12419     12422
     12418     12416     12419     12420     12418     12416     12419     12421
     12418     12416     12419     12422     12419     12422     12425     12426
     12419     12422     12425     12427     12419     12422     12425     12428
     12420     12419     12422     12423     12420     12419     12422     12424
     12420     12419     12422     12425     12421     12419     12422     12423
     12421     12419     12422     12424     12421     12419     12422     12425
     12422     12425     12428     12429     12422     12425     12428     12430
     12422     12425     12428     12431     12423     12422     12425     12426
     12423     12422     12425     12427     12423     12422     12425     12428
     12424     12422     12425     12426     12424     12422     12425     12427
     12424     12422     12425     12428     12425     12428     12431     12432
     12425     12428     12431     12433     12425     12428     12431     12434
     12426     12425     12428     12429     12426     12425     12428     12430
     12426     12425     12428     12431     12427     12425     12428     12429
     12427     12425     12428     12430     12427     12425     12428     12431
     12428     12431     12434     12435     12428     12431     12434     12436
     12428     12431     12434     12437     12429     12428     12431     12432
     12429     12428     12431     12433     12429     12428     12431     12434
     12430     12428     12431     12432     12430     12428     12431     12433
     12430     12428     12431     12434     12431     12434     12437     12438
     12431     12434     12437     12439     12431     12434     12437     12440
     12432     12431     12434     12435     12432     12431     12434     12436
     12432     12431     12434     12437     12433     12431     12434     12435
     12433     12431     12434     12436     12433     12431     12434     12437
     12435     12434     12437     12438     12435     12434     12437     12439
     12435     12434     12437     12440     12436     12434     12437     12438
     12436     12434     12437     12439     12436     12434     12437     12440
     12441     12442     12457     12458     12441     12442     12457     12459
     12441     12442     12457     12463     12442     12441     12445     12446
     12442     12441     12445     12447     12442     12441     12445     12448
     12442     12441     12449     12450     12442     12441     12449     12451
     12442     12441     12449     12452     12442     12441     12453     12454
     12442     12441     12453     12455     12442     12441     12453     12456
     12442     12457     12463     12460     12443     12442     12441     12445
     12443     12442     12441     12449     12443     12442     12441     12453
     12443     12442     12457     12458     12443     12442     12457     12459
     12443     12442     12457     12463     12444     12442     12441     12445
     12444     12442     12441     12449     12444     12442     12441     12453
     12444     12442     12457     12458     12444     12442     12457     12459
     12444     12442     12457     12463     12445     12441     12442     12457
     12445     12441     12449     12450     12445     12441     12449     12451
     12445     12441     12449     12452     12445     12441     12453     12454
     12445     12441     12453     12455     12445     12441     12453     12456
     12446     12445     12441     12449     12446     12445     12441     12453
     12447     12445     12441     12449     12447     12445     12441     12453
     12448     12445     12441     12449     12448     12445     12441     12453
     12449     12441     12442     12457     12449     12441     12453     12454
     12449     12441     12453     12455     12449     12441     12453     12456
     12450     12449     12441     12453     12451     12449     12441     12453
     12452     12449     12441     12453     12453     12441     12442     12457
     12457     12463     12460     12461     12457     12463     12460     12462
     12457     12463     12460     12464     12458     12457     12463     12460
     12459     12457     12463     12460     12460     12464     12465     12466
     12460     12464     12465     12467     12460     12464     12465     12468
     12461     12460     12464     12465     12462     12460     12464     12465
     12463     12460     12464     12465     12464     12465     12468     12469
     12464     12465     12468     12470     12464     12465     12468     12476
     12465     12468     12470     12471     12465     12468     12476     12477
     12465     12468     12476     12478     12465     12468     12476     12479
     12466     12465     12468     12469     12466     12465     12468     12470
     12466     12465     12468     12476     12467     12465     12468     12469
     12467     12465     12468     12470     12467     12465     12468     12476
     12468     12470     12471     12472     12468     12470     12471     12473
     12468     12476     12479     12480     12469     12468     12470     12471
     12469     12468     12476     12477     12469     12468     12476     12478
     12469     12468     12476     12479     12470     12468     12476     12477
     12470     12468     12476     12478     12470     12468     12476     12479
     12470     12471     12473     12474     12470     12471     12473     12475
     12470     12471     12473     12485     12471     12470     12468     12476
     12471     12473     12485     12486     12471     12473     12485     12487
     12471     12473     12485     12488     12472     12471     12473     12474
     12472     12471     12473     12475     12472     12471     12473     12485
     12473     12485     12488     12489     12473     12485     12488     12490
     12473     12485     12488     12491     12474     12473     12485     12486
     12474     12473     12485     12487     12474     12473     12485     12488
     12475     12473     12485     12486     12475     12473     12485     12487
     12475     12473     12485     12488     12476     12479     12480     12481
     12476     12479     12480     12482     12477     12476     12479     12480
     12478     12476     12479     12480     12479     12480     12482     12483
     12479     12480     12482     12484     12479     12480     12482     12532
     12480     12482     12532     12533     12480     12482     12532     12534
     12480     12482     12532     12535     12481     12480     12482     12483
     12481     12480     12482     12484     12481     12480     12482     12532
     12482     12532     12535     12536     12482     12532     12535     12537
     12482     12532     12535     12538     12483     12482     12532     12533
     12483     12482     12532     12534     12483     12482     12532     12535
     12484     12482     12532     12533     12484     12482     12532     12534
     12484     12482     12532     12535     12485     12488     12491     12492
     12485     12488     12491     12493     12485     12488     12491     12494
     12486     12485     12488     12489     12486     12485     12488     12490
     12486     12485     12488     12491     12487     12485     12488     12489
     12487     12485     12488     12490     12487     12485     12488     12491
     12488     12491     12494     12495     12488     12491     12494     12496
     12488     12491     12494     12497     12489     12488     12491     12492
     12489     12488     12491     12493     12489     12488     12491     12494
     12490     12488     12491     12492     12490     12488     12491     12493
     12490     12488     12491     12494     12491     12494     12497     12498
     12491     12494     12497     12499     12491     12494     12497     12500
     12492     12491     12494     12495     12492     12491     12494     12496
     12492     12491     12494     12497     12493     12491     12494     12495
     12493     12491     12494     12496     12493     12491     12494     12497
     12494     12497     12500     12501     12494     12497     12500     12502
     12494     12497     12500     12503     12495     12494     12497     12498
     12495     12494     12497     12499     12495     12494     12497     12500
     12496     12494     12497     12498     12496     12494     12497     12499
     12496     12494     12497     12500     12497     12500     12503     12504
     12497     12500     12503     12505     12498     12497     12500     12501
     12498     12497     12500     12502     12498     12497     12500     12503
     12499     12497     12500     12501     12499     12497     12500     12502
     12499     12497     12500     12503     12500     12503     12505     12506
     12500     12503     12505     12507     12501     12500     12503     12504
     12501     12500     12503     12505     12502     12500     12503     12504
     12502     12500     12503     12505     12503     12505     12507     12508
     12503     12505     12507     12509     12503     12505     12507     12510
     12504     12503     12505     12506     12504     12503     12505     12507
     12505     12507     12510     12511     12505     12507     12510     12512
     12505     12507     12510     12513     12506     12505     12507     12508
     12506     12505     12507     12509     12506     12505     12507     12510
     12507     12510     12513     12514     12507     12510     12513     12515
     12507     12510     12513     12516     12508     12507     12510     12511
     12508     12507     12510     12512     12508     12507     12510     12513
     12509     12507     12510     12511     12509     12507     12510     12512
     12509     12507     12510     12513     12510     12513     12516     12517
     12510     12513     12516     12518     12510     12513     12516     12519
     12511     12510     12513     12514     12511     12510     12513     12515
     12511     12510     12513     12516     12512     12510     12513     12514
     12512     12510     12513     12515     12512     12510     12513     12516
     12513     12516     12519     12520     12513     12516     12519     12521
     12513     12516     12519     12522     12514     12513     12516     12517
     12514     12513     12516     12518     12514     12513     12516     12519
     12515     12513     12516     12517     12515     12513     12516     12518
     12515     12513     12516     12519     12516     12519     12522     12523
     12516     12519     12522     12524     12516     12519     12522     12525
     12517     12516     12519     12520     12517     12516     12519     12521
     12517     12516     12519     12522     12518     12516     12519     12520
     12518     12516     12519     12521     12518     12516     12519     12522
     12519     12522     12525     12526     12519     12522     12525     12527
     12519     12522     12525     12528     12520     12519     12522     12523
     12520     12519     12522     12524     12520     12519     12522     12525
     12521     12519     12522     12523     12521     12519     12522     12524
     12521     12519     12522     12525     12522     12525     12528     12529
     12522     12525     12528     12530     12522     12525     12528     12531
     12523     12522     12525     12526     12523     12522     12525     12527
     12523     12522     12525     12528     12524     12522     12525     12526
     12524     12522     12525     12527     12524     12522     12525     12528
     12526     12525     12528     12529     12526     12525     12528     12530
     12526     12525     12528     12531     12527     12525     12528     12529
     12527     12525     12528     12530     12527     12525     12528     12531
     12532     12535     12538     12539     12532     12535     12538     12540
     12532     12535     12538     12541     12533     12532     12535     12536
     12533     12532     12535     12537     12533     12532     12535     12538
     12534     12532     12535     12536     12534     12532     12535     12537
     12534     12532     12535     12538     12535     12538     12541     12542
     12535     12538     12541     12543     12535     12538     12541     12544
     12536     12535     12538     12539     12536     12535     12538     12540
     12536     12535     12538     12541     12537     12535     12538     12539
     12537     12535     12538     12540     12537     12535     12538     12541
     12538     12541     12544     12545     12538     12541     12544     12546
     12538     12541     12544     12547     12539     12538     12541     12542
     12539     12538     12541     12543     12539     12538     12541     12544
     12540     12538     12541     12542     12540     12538     12541     12543
     12540     12538     12541     12544     12541     12544     12547     12548
     12541     12544     12547     12549     12541     12544     12547     12550
     12542     12541     12544     12545     12542     12541     12544     12546
     12542     12541     12544     12547     12543     12541     12544     12545
     12543     12541     12544     12546     12543     12541     12544     12547
     12544     12547     12550     12551     12544     12547     12550     12552
     12544     12547     12550     12553     12545     12544     12547     12548
     12545     12544     12547     12549     12545     12544     12547     12550
     12546     12544     12547     12548     12546     12544     12547     12549
     12546     12544     12547     12550     12547     12550     12553     12554
     12547     12550     12553     12555     12547     12550     12553     12556
     12548     12547     12550     12551     12548     12547     12550     12552
     12548     12547     12550     12553     12549     12547     12550     12551
     12549     12547     12550     12552     12549     12547     12550     12553
     12550     12553     12556     12557     12550     12553     12556     12558
     12550     12553     12556     12559     12551     12550     12553     12554
     12551     12550     12553     12555     12551     12550     12553     12556
     12552     12550     12553     12554     12552     12550     12553     12555
     12552     12550     12553     12556     12553     12556     12559     12560
     12553     12556     12559     12561     12553     12556     12559     12562
     12554     12553     12556     12557     12554     12553     12556     12558
     12554     12553     12556     12559     12555     12553     12556     12557
     12555     12553     12556     12558     12555     12553     12556     12559
     12556     12559     12562     12563     12556     12559     12562     12564
     12556     12559     12562     12565     12557     12556     12559     12560
     12557     12556     12559     12561     12557     12556     12559     12562
     12558     12556     12559     12560     12558     12556     12559     12561
     12558     12556     12559     12562     12559     12562     12565     12566
     12559     12562     12565     12567     12559     12562     12565     12568
     12560     12559     12562     12563     12560     12559     12562     12564
     12560     12559     12562     12565     12561     12559     12562     12563
     12561     12559     12562     12564     12561     12559     12562     12565
     12562     12565     12568     12569     12562     12565     12568     12570
     12562     12565     12568     12571     12563     12562     12565     12566
     12563     12562     12565     12567     12563     12562     12565     12568
     12564     12562     12565     12566     12564     12562     12565     12567
     12564     12562     12565     12568     12565     12568     12571     12572
     12565     12568     12571     12573     12565     12568     12571     12574
     12566     12565     12568     12569     12566     12565     12568     12570
     12566     12565     12568     12571     12567     12565     12568     12569
     12567     12565     12568     12570     12567     12565     12568     12571
     12569     12568     12571     12572     12569     12568     12571     12573
     12569     12568     12571     12574     12570     12568     12571     12572
     12570     12568     12571     12573     12570     12568     12571     12574
     12575     12576     12591     12592     12575     12576     12591     12593
     12575     12576     12591     12597     12576     12575     12579     12580
     12576     12575     12579     12581     12576     12575     12579     12582
     12576     12575     12583     12584     12576     12575     12583     12585
     12576     12575     12583     12586     12576     12575     12587     12588
     12576     12575     12587     12589     12576     12575     12587     12590
     12576     12591     12597     12594     12577     12576     12575     12579
     12577     12576     12575     12583     12577     12576     12575     12587
     12577     12576     12591     12592     12577     12576     12591     12593
     12577     12576     12591     12597     12578     12576     12575     12579
     12578     12576     12575     12583     12578     12576     12575     12587
     12578     12576     12591     12592     12578     12576     12591     12593
     12578     12576     12591     12597     12579     12575     12576     12591
     12579     12575     12583     12584     12579     12575     12583     12585
     12579     12575     12583     12586     12579     12575     12587     12588
     12579     12575     12587     12589     12579     12575     12587     12590
     12580     12579     12575     12583     12580     12579     12575     12587
     12581     12579     12575     12583     12581     12579     12575     12587
     12582     12579     12575     12583     12582     12579     12575     12587
     12583     12575     12576     12591     12583     12575     12587     12588
     12583     12575     12587     12589     12583     12575     12587     12590
     12584     12583     12575     12587     12585     12583     12575     12587
     12586     12583     12575     12587     12587     12575     12576     12591
     12591     12597     12594     12595     12591     12597     12594     12596
     12591     12597     12594     12598     12592     12591     12597     12594
     12593     12591     12597     12594     12594     12598     12599     12600
     12594     12598     12599     12601     12594     12598     12599     12602
     12595     12594     12598     12599     12596     12594     12598     12599
     12597     12594     12598     12599     12598     12599     12602     12603
     12598     12599     12602     12604     12598     12599     12602     12610
     12599     12602     12604     12605     12599     12602     12610     12611
     12599     12602     12610     12612     12599     12602     12610     12613
     12600     12599     12602     12603     12600     12599     12602     12604
     12600     12599     12602     12610     12601     12599     12602     12603
     12601     12599     12602     12604     12601     12599     12602     12610
     12602     12604     12605     12606     12602     12604     12605     12607
     12602     12610     12613     12614     12603     12602     12604     12605
     12603     12602     12610     12611     12603     12602     12610     12612
     12603     12602     12610     12613     12604     12602     12610     12611
     12604     12602     12610     12612     12604     12602     12610     12613
     12604     12605     12607     12608     12604     12605     12607     12609
     12604     12605     12607     12619     12605     12604     12602     12610
     12605     12607     12619     12620     12605     12607     12619     12621
     12605     12607     12619     12622     12606     12605     12607     12608
     12606     12605     12607     12609     12606     12605     12607     12619
     12607     12619     12622     12623     12607     12619     12622     12624
     12607     12619     12622     12625     12608     12607     12619     12620
     12608     12607     12619     12621     12608     12607     12619     12622
     12609     12607     12619     12620     12609     12607     12619     12621
     12609     12607     12619     12622     12610     12613     12614     12615
     12610     12613     12614     12616     12611     12610     12613     12614
     12612     12610     12613     12614     12613     12614     12616     12617
     12613     12614     12616     12618     12613     12614     12616     12666
     12614     12616     12666     12667     12614     12616     12666     12668
     12614     12616     12666     12669     12615     12614     12616     12617
     12615     12614     12616     12618     12615     12614     12616     12666
     12616     12666     12669     12670     12616     12666     12669     12671
     12616     12666     12669     12672     12617     12616     12666     12667
     12617     12616     12666     12668     12617     12616     12666     12669
     12618     12616     12666     12667     12618     12616     12666     12668
     12618     12616     12666     12669     12619     12622     12625     12626
     12619     12622     12625     12627     12619     12622     12625     12628
     12620     12619     12622     12623     12620     12619     12622     12624
     12620     12619     12622     12625     12621     12619     12622     12623
     12621     12619     12622     12624     12621     12619     12622     12625
     12622     12625     12628     12629     12622     12625     12628     12630
     12622     12625     12628     12631     12623     12622     12625     12626
     12623     12622     12625     12627     12623     12622     12625     12628
     12624     12622     12625     12626     12624     12622     12625     12627
     12624     12622     12625     12628     12625     12628     12631     12632
     12625     12628     12631     12633     12625     12628     12631     12634
     12626     12625     12628     12629     12626     12625     12628     12630
     12626     12625     12628     12631     12627     12625     12628     12629
     12627     12625     12628     12630     12627     12625     12628     12631
     12628     12631     12634     12635     12628     12631     12634     12636
     12628     12631     12634     12637     12629     12628     12631     12632
     12629     12628     12631     12633     12629     12628     12631     12634
     12630     12628     12631     12632     12630     12628     12631     12633
     12630     12628     12631     12634     12631     12634     12637     12638
     12631     12634     12637     12639     12632     12631     12634     12635
     12632     12631     12634     12636     12632     12631     12634     12637
     12633     12631     12634     12635     12633     12631     12634     12636
     12633     12631     12634     12637     12634     12637     12639     12640
     12634     12637     12639     12641     12635     12634     12637     12638
     12635     12634     12637     12639     12636     12634     12637     12638
     12636     12634     12637     12639     12637     12639     12641     12642
     12637     12639     12641     12643     12637     12639     12641     12644
     12638     12637     12639     12640     12638     12637     12639     12641
     12639     12641     12644     12645     12639     12641     12644     12646
     12639     12641     12644     12647     12640     12639     12641     12642
     12640     12639     12641     12643     12640     12639     12641     12644
     12641     12644     12647     12648     12641     12644     12647     12649
     12641     12644     12647     12650     12642     12641     12644     12645
     12642     12641     12644     12646     12642     12641     12644     12647
     12643     12641     12644     12645     12643     12641     12644     12646
     12643     12641     12644     12647     12644     12647     12650     12651
     12644     12647     12650     12652     12644     12647     12650     12653
     12645     12644     12647     12648     12645     12644     12647     12649
     12645     12644     12647     12650     12646     12644     12647     12648
     12646     12644     12647     12649     12646     12644     12647     12650
     12647     12650     12653     12654     12647     12650     12653     12655
     12647     12650     12653     12656     12648     12647     12650     12651
     12648     12647     12650     12652     12648     12647     12650     12653
     12649     12647     12650     12651     12649     12647     12650     12652
     12649     12647     12650     12653     12650     12653     12656     12657
     12650     12653     12656     12658     12650     12653     12656     12659
     12651     12650     12653     12654     12651     12650     12653     12655
     12651     12650     12653     12656     12652     12650     12653     12654
     12652     12650     12653     12655     12652     12650     12653     12656
     12653     12656     12659     12660     12653     12656     12659     12661
     12653     12656     12659     12662     12654     12653     12656     12657
     12654     12653     12656     12658     12654     12653     12656     12659
     12655     12653     12656     12657     12655     12653     12656     12658
     12655     12653     12656     12659     12656     12659     12662     12663
     12656     12659     12662     12664     12656     12659     12662     12665
     12657     12656     12659     12660     12657     12656     12659     12661
     12657     12656     12659     12662     12658     12656     12659     12660
     12658     12656     12659     12661     12658     12656     12659     12662
     12660     12659     12662     12663     12660     12659     12662     12664
     12660     12659     12662     12665     12661     12659     12662     12663
     12661     12659     12662     12664     12661     12659     12662     12665
     12666     12669     12672     12673     12666     12669     12672     12674
     12666     12669     12672     12675     12667     12666     12669     12670
     12667     12666     12669     12671     12667     12666     12669     12672
     12668     12666     12669     12670     12668     12666     12669     12671
     12668     12666     12669     12672     12669     12672     12675     12676
     12669     12672     12675     12677     12669     12672     12675     12678
     12670     12669     12672     12673     12670     12669     12672     12674
     12670     12669     12672     12675     12671     12669     12672     12673
     12671     12669     12672     12674     12671     12669     12672     12675
     12672     12675     12678     12679     12672     12675     12678     12680
     12672     12675     12678     12681     12673     12672     12675     12676
     12673     12672     12675     12677     12673     12672     12675     12678
     12674     12672     12675     12676     12674     12672     12675     12677
     12674     12672     12675     12678     12675     12678     12681     12682
     12675     12678     12681     12683     12675     12678     12681     12684
     12676     12675     12678     12679     12676     12675     12678     12680
     12676     12675     12678     12681     12677     12675     12678     12679
     12677     12675     12678     12680     12677     12675     12678     12681
     12678     12681     12684     12685     12678     12681     12684     12686
     12678     12681     12684     12687     12679     12678     12681     12682
     12679     12678     12681     12683     12679     12678     12681     12684
     12680     12678     12681     12682     12680     12678     12681     12683
     12680     12678     12681     12684     12681     12684     12687     12688
     12681     12684     12687     12689     12681     12684     12687     12690
     12682     12681     12684     12685     12682     12681     12684     12686
     12682     12681     12684     12687     12683     12681     12684     12685
     12683     12681     12684     12686     12683     12681     12684     12687
     12684     12687     12690     12691     12684     12687     12690     12692
     12684     12687     12690     12693     12685     12684     12687     12688
     12685     12684     12687     12689     12685     12684     12687     12690
     12686     12684     12687     12688     12686     12684     12687     12689
     12686     12684     12687     12690     12687     12690     12693     12694
     12687     12690     12693     12695     12687     12690     12693     12696
     12688     12687     12690     12691     12688     12687     12690     12692
     12688     12687     12690     12693     12689     12687     12690     12691
     12689     12687     12690     12692     12689     12687     12690     12693
     12690     12693     12696     12697     12690     12693     12696     12698
     12690     12693     12696     12699     12691     12690     12693     12694
     12691     12690     12693     12695     12691     12690     12693     12696
     12692     12690     12693     12694     12692     12690     12693     12695
     12692     12690     12693     12696     12693     12696     12699     12700
     12693     12696     12699     12701     12693     12696     12699     12702
     12694     12693     12696     12697     12694     12693     12696     12698
     12694     12693     12696     12699     12695     12693     12696     12697
     12695     12693     12696     12698     12695     12693     12696     12699
     12696     12699     12702     12703     12696     12699     12702     12704
     12696     12699     12702     12705     12697     12696     12699     12700
     12697     12696     12699     12701     12697     12696     12699     12702
     12698     12696     12699     12700     12698     12696     12699     12701
     12698     12696     12699     12702     12699     12702     12705     12706
     12699     12702     12705     12707     12699     12702     12705     12708
     12700     12699     12702     12703     12700     12699     12702     12704
     12700     12699     12702     12705     12701     12699     12702     12703
     12701     12699     12702     12704     12701     12699     12702     12705
     12703     12702     12705     12706     12703     12702     12705     12707
     12703     12702     12705     12708     12704     12702     12705     12706
     12704     12702     12705     12707     12704     12702     12705     12708
     12709     12710     12725     12726     12709     12710     12725     12727
     12709     12710     12725     12731     12710     12709     12713     12714
     12710     12709     12713     12715     12710     12709     12713     12716
     12710     12709     12717     12718     12710     12709     12717     12719
     12710     12709     12717     12720     12710     12709     12721     12722
     12710     12709     12721     12723     12710     12709     12721     12724
     12710     12725     12731     12728     12711     12710     12709     12713
     12711     12710     12709     12717     12711     12710     12709     12721
     12711     12710     12725     12726     12711     12710     12725     12727
     12711     12710     12725     12731     12712     12710     12709     12713
     12712     12710     12709     12717     12712     12710     12709     12721
     12712     12710     12725     12726     12712     12710     12725     12727
     12712     12710     12725     12731     12713     12709     12710     12725
     12713     12709     12717     12718     12713     12709     12717     12719
     12713     12709     12717     12720     12713     12709     12721     12722
     12713     12709     12721     12723     12713     12709     12721     12724
     12714     12713     12709     12717     12714     12713     12709     12721
     12715     12713     12709     12717     12715     12713     12709     12721
     12716     12713     12709     12717     12716     12713     12709     12721
     12717     12709     12710     12725     12717     12709     12721     12722
     12717     12709     12721     12723     12717     12709     12721     12724
     12718     12717     12709     12721     12719     12717     12709     12721
     12720     12717     12709     12721     12721     12709     12710     12725
     12725     12731     12728     12729     12725     12731     12728     12730
     12725     12731     12728     12732     12726     12725     12731     12728
     12727     12725     12731     12728     12728     12732     12733     12734
     12728     12732     12733     12735     12728     12732     12733     12736
     12729     12728     12732     12733     12730     12728     12732     12733
     12731     12728     12732     12733     12732     12733     12736     12737
     12732     12733     12736     12738     12732     12733     12736     12744
     12733     12736     12738     12739     12733     12736     12744     12745
     12733     12736     12744     12746     12733     12736     12744     12747
     12734     12733     12736     12737     12734     12733     12736     12738
     12734     12733     12736     12744     12735     12733     12736     12737
     12735     12733     12736     12738     12735     12733     12736     12744
     12736     12738     12739     12740     12736     12738     12739     12741
     12736     12744     12747     12748     12737     12736     12738     12739
     12737     12736     12744     12745     12737     12736     12744     12746
     12737     12736     12744     12747     12738     12736     12744     12745
     12738     12736     12744     12746     12738     12736     12744     12747
     12738     12739     12741     12742     12738     12739     12741     12743
     12738     12739     12741     12753     12739     12738     12736     12744
     12739     12741     12753     12754     12739     12741     12753     12755
     12739     12741     12753     12756     12740     12739     12741     12742
     12740     12739     12741     12743     12740     12739     12741     12753
     12741     12753     12756     12757     12741     12753     12756     12758
     12741     12753     12756     12759     12742     12741     12753     12754
     12742     12741     12753     12755     12742     12741     12753     12756
     12743     12741     12753     12754     12743     12741     12753     12755
     12743     12741     12753     12756     12744     12747     12748     12749
     12744     12747     12748     12750     12745     12744     12747     12748
     12746     12744     12747     12748     12747     12748     12750     12751
     12747     12748     12750     12752     12747     12748     12750     12800
     12748     12750     12800     12801     12748     12750     12800     12802
     12748     12750     12800     12803     12749     12748     12750     12751
     12749     12748     12750     12752     12749     12748     12750     12800
     12750     12800     12803     12804     12750     12800     12803     12805
     12750     12800     12803     12806     12751     12750     12800     12801
     12751     12750     12800     12802     12751     12750     12800     12803
     12752     12750     12800     12801     12752     12750     12800     12802
     12752     12750     12800     12803     12753     12756     12759     12760
     12753     12756     12759     12761     12753     12756     12759     12762
     12754     12753     12756     12757     12754     12753     12756     12758
     12754     12753     12756     12759     12755     12753     12756     12757
     12755     12753     12756     12758     12755     12753     12756     12759
     12756     12759     12762     12763     12756     12759     12762     12764
     12756     12759     12762     12765     12757     12756     12759     12760
     12757     12756     12759     12761     12757     12756     12759     12762
     12758     12756     12759     12760     12758     12756     12759     12761
     12758     12756     12759     12762     12759     12762     12765     12766
     12759     12762     12765     12767     12759     12762     12765     12768
     12760     12759     12762     12763     12760     12759     12762     12764
     12760     12759     12762     12765     12761     12759     12762     12763
     12761     12759     12762     12764     12761     12759     12762     12765
     12762     12765     12768     12769     12762     12765     12768     12770
     12762     12765     12768     12771     12763     12762     12765     12766
     12763     12762     12765     12767     12763     12762     12765     12768
     12764     12762     12765     12766     12764     12762     12765     12767
     12764     12762     12765     12768     12765     12768     12771     12772
     12765     12768     12771     12773     12766     12765     12768     12769
     12766     12765     12768     12770     12766     12765     12768     12771
     12767     12765     12768     12769     12767     12765     12768     12770
     12767     12765     12768     12771     12768     12771     12773     12774
     12768     12771     12773     12775     12769     12768     12771     12772
     12769     12768     12771     12773     12770     12768     12771     12772
     12770     12768     12771     12773     12771     12773     12775     12776
     12771     12773     12775     12777     12771     12773     12775     12778
     12772     12771     12773     12774     12772     12771     12773     12775
     12773     12775     12778     12779     12773     12775     12778     12780
     12773     12775     12778     12781     12774     12773     12775     12776
     12774     12773     12775     12777     12774     12773     12775     12778
     12775     12778     12781     12782     12775     12778     12781     12783
     12775     12778     12781     12784     12776     12775     12778     12779
     12776     12775     12778     12780     12776     12775     12778     12781
     12777     12775     12778     12779     12777     12775     12778     12780
     12777     12775     12778     12781     12778     12781     12784     12785
     12778     12781     12784     12786     12778     12781     12784     12787
     12779     12778     12781     12782     12779     12778     12781     12783
     12779     12778     12781     12784     12780     12778     12781     12782
     12780     12778     12781     12783     12780     12778     12781     12784
     12781     12784     12787     12788     12781     12784     12787     12789
     12781     12784     12787     12790     12782     12781     12784     12785
     12782     12781     12784     12786     12782     12781     12784     12787
     12783     12781     12784     12785     12783     12781     12784     12786
     12783     12781     12784     12787     12784     12787     12790     12791
     12784     12787     12790     12792     12784     12787     12790     12793
     12785     12784     12787     12788     12785     12784     12787     12789
     12785     12784     12787     12790     12786     12784     12787     12788
     12786     12784     12787     12789     12786     12784     12787     12790
     12787     12790     12793     12794     12787     12790     12793     12795
     12787     12790     12793     12796     12788     12787     12790     12791
     12788     12787     12790     12792     12788     12787     12790     12793
     12789     12787     12790     12791     12789     12787     12790     12792
     12789     12787     12790     12793     12790     12793     12796     12797
     12790     12793     12796     12798     12790     12793     12796     12799
     12791     12790     12793     12794     12791     12790     12793     12795
     12791     12790     12793     12796     12792     12790     12793     12794
     12792     12790     12793     12795     12792     12790     12793     12796
     12794     12793     12796     12797     12794     12793     12796     12798
     12794     12793     12796     12799     12795     12793     12796     12797
     12795     12793     12796     12798     12795     12793     12796     12799
     12800     12803     12806     12807     12800     12803     12806     12808
     12800     12803     12806     12809     12801     12800     12803     12804
     12801     12800     12803     12805     12801     12800     12803     12806
     12802     12800     12803     12804     12802     12800     12803     12805
     12802     12800     12803     12806     12803     12806     12809     12810
     12803     12806     12809     12811     12803     12806     12809     12812
     12804     12803     12806     12807     12804     12803     12806     12808
     12804     12803     12806     12809     12805     12803     12806     12807
     12805     12803     12806     12808     12805     12803     12806     12809
     12806     12809     12812     12813     12806     12809     12812     12814
     12806     12809     12812     12815     12807     12806     12809     12810
     12807     12806     12809     12811     12807     12806     12809     12812
     12808     12806     12809     12810     12808     12806     12809     12811
     12808     12806     12809     12812     12809     12812     12815     12816
     12809     12812     12815     12817     12809     12812     12815     12818
     12810     12809     12812     12813     12810     12809     12812     12814
     12810     12809     12812     12815     12811     12809     12812     12813
     12811     12809     12812     12814     12811     12809     12812     12815
     12812     12815     12818     12819     12812     12815     12818     12820
     12812     12815     12818     12821     12813     12812     12815     12816
     12813     12812     12815     12817     12813     12812     12815     12818
     12814     12812     12815     12816     12814     12812     12815     12817
     12814     12812     12815     12818     12815     12818     12821     12822
     12815     12818     12821     12823     12815     12818     12821     12824
     12816     12815     12818     12819     12816     12815     12818     12820
     12816     12815     12818     12821     12817     12815     12818     12819
     12817     12815     12818     12820     12817     12815     12818     12821
     12818     12821     12824     12825     12818     12821     12824     12826
     12818     12821     12824     12827     12819     12818     12821     12822
     12819     12818     12821     12823     12819     12818     12821     12824
     12820     12818     12821     12822     12820     12818     12821     12823
     12820     12818     12821     12824     12821     12824     12827     12828
     12821     12824     12827     12829     12821     12824     12827     12830
     12822     12821     12824     12825     12822     12821     12824     12826
     12822     12821     12824     12827     12823     12821     12824     12825
     12823     12821     12824     12826     12823     12821     12824     12827
     12824     12827     12830     12831     12824     12827     12830     12832
     12824     12827     12830     12833     12825     12824     12827     12828
     12825     12824     12827     12829     12825     12824     12827     12830
     12826     12824     12827     12828     12826     12824     12827     12829
     12826     12824     12827     12830     12827     12830     12833     12834
     12827     12830     12833     12835     12827     12830     12833     12836
     12828     12827     12830     12831     12828     12827     12830     12832
     12828     12827     12830     12833     12829     12827     12830     12831
     12829     12827     12830     12832     12829     12827     12830     12833
     12830     12833     12836     12837     12830     12833     12836     12838
     12830     12833     12836     12839     12831     12830     12833     12834
     12831     12830     12833     12835     12831     12830     12833     12836
     12832     12830     12833     12834     12832     12830     12833     12835
     12832     12830     12833     12836     12833     12836     12839     12840
     12833     12836     12839     12841     12833     12836     12839     12842
     12834     12833     12836     12837     12834     12833     12836     12838
     12834     12833     12836     12839     12835     12833     12836     12837
     12835     12833     12836     12838     12835     12833     12836     12839
     12837     12836     12839     12840     12837     12836     12839     12841
     12837     12836     12839     12842     12838     12836     12839     12840
     12838     12836     12839     12841     12838     12836     12839     12842
     12843     12844     12859     12860     12843     12844     12859     12861
     12843     12844     12859     12865     12844     12843     12847     12848
     12844     12843     12847     12849     12844     12843     12847     12850
     12844     12843     12851     12852     12844     12843     12851     12853
     12844     12843     12851     12854     12844     12843     12855     12856
     12844     12843     12855     12857     12844     12843     12855     12858
     12844     12859     12865     12862     12845     12844     12843     12847
     12845     12844     12843     12851     12845     12844     12843     12855
     12845     12844     12859     12860     12845     12844     12859     12861
     12845     12844     12859     12865     12846     12844     12843     12847
     12846     12844     12843     12851     12846     12844     12843     12855
     12846     12844     12859     12860     12846     12844     12859     12861
     12846     12844     12859     12865     12847     12843     12844     12859
     12847     12843     12851     12852     12847     12843     12851     12853
     12847     12843     12851     12854     12847     12843     12855     12856
     12847     12843     12855     12857     12847     12843     12855     12858
     12848     12847     12843     12851     12848     12847     12843     12855
     12849     12847     12843     12851     12849     12847     12843     12855
     12850     12847     12843     12851     12850     12847     12843     12855
     12851     12843     12844     12859     12851     12843     12855     12856
     12851     12843     12855     12857     12851     12843     12855     12858
     12852     12851     12843     12855     12853     12851     12843     12855
     12854     12851     12843     12855     12855     12843     12844     12859
     12859     12865     12862     12863     12859     12865     12862     12864
     12859     12865     12862     12866     12860     12859     12865     12862
     12861     12859     12865     12862     12862     12866     12867     12868
     12862     12866     12867     12869     12862     12866     12867     12870
     12863     12862     12866     12867     12864     12862     12866     12867
     12865     12862     12866     12867     12866     12867     12870     12871
     12866     12867     12870     12872     12866     12867     12870     12878
     12867     12870     12872     12873     12867     12870     12878     12879
     12867     12870     12878     12880     12867     12870     12878     12881
     12868     12867     12870     12871     12868     12867     12870     12872
     12868     12867     12870     12878     12869     12867     12870     12871
     12869     12867     12870     12872     12869     12867     12870     12878
     12870     12872     12873     12874     12870     12872     12873     12875
     12870     12878     12881     12882     12871     12870     12872     12873
     12871     12870     12878     12879     12871     12870     12878     12880
     12871     12870     12878     12881     12872     12870     12878     12879
     12872     12870     12878     12880     12872     12870     12878     12881
     12872     12873     12875     12876     12872     12873     12875     12877
     12872     12873     12875     12887     12873     12872     12870     12878
     12873     12875     12887     12888     12873     12875     12887     12889
     12873     12875     12887     12890     12874     12873     12875     12876
     12874     12873     12875     12877     12874     12873     12875     12887
     12875     12887     12890     12891     12875     12887     12890     12892
     12875     12887     12890     12893     12876     12875     12887     12888
     12876     12875     12887     12889     12876     12875     12887     12890
     12877     12875     12887     12888     12877     12875     12887     12889
     12877     12875     12887     12890     12878     12881     12882     12883
     12878     12881     12882     12884     12879     12878     12881     12882
     12880     12878     12881     12882     12881     12882     12884     12885
     12881     12882     12884     12886     12881     12882     12884     12934
     12882     12884     12934     12935     12882     12884     12934     12936
     12882     12884     12934     12937     12883     12882     12884     12885
     12883     12882     12884     12886     12883     12882     12884     12934
     12884     12934     12937     12938     12884     12934     12937     12939
     12884     12934     12937     12940     12885     12884     12934     12935
     12885     12884     12934     12936     12885     12884     12934     12937
     12886     12884     12934     12935     12886     12884     12934     12936
     12886     12884     12934     12937     12887     12890     12893     12894
     12887     12890     12893     12895     12887     12890     12893     12896
     12888     12887     12890     12891     12888     12887     12890     12892
     12888     12887     12890     12893     12889     12887     12890     12891
     12889     12887     12890     12892     12889     12887     12890     12893
     12890     12893     12896     12897     12890     12893     12896     12898
     12890     12893     12896     12899     12891     12890     12893     12894
     12891     12890     12893     12895     12891     12890     12893     12896
     12892     12890     12893     12894     12892     12890     12893     12895
     12892     12890     12893     12896     12893     12896     12899     12900
     12893     12896     12899     12901     12893     12896     12899     12902
     12894     12893     12896     12897     12894     12893     12896     12898
     12894     12893     12896     12899     12895     12893     12896     12897
     12895     12893     12896     12898     12895     12893     12896     12899
     12896     12899     12902     12903     12896     12899     12902     12904
     12896     12899     12902     12905     12897     12896     12899     12900
     12897     12896     12899     12901     12897     12896     12899     12902
     12898     12896     12899     12900     12898     12896     12899     12901
     12898     12896     12899     12902     12899     12902     12905     12906
     12899     12902     12905     12907     12900     12899     12902     12903
     12900     12899     12902     12904     12900     12899     12902     12905
     12901     12899     12902     12903     12901     12899     12902     12904
     12901     12899     12902     12905     12902     12905     12907     12908
     12902     12905     12907     12909     12903     12902     12905     12906
     12903     12902     12905     12907     12904     12902     12905     12906
     12904     12902     12905     12907     12905     12907     12909     12910
     12905     12907     12909     12911     12905     12907     12909     12912
     12906     12905     12907     12908     12906     12905     12907     12909
     12907     12909     12912     12913     12907     12909     12912     12914
     12907     12909     12912     12915     12908     12907     12909     12910
     12908     12907     12909     12911     12908     12907     12909     12912
     12909     12912     12915     12916     12909     12912     12915     12917
     12909     12912     12915     12918     12910     12909     12912     12913
     12910     12909     12912     12914     12910     12909     12912     12915
     12911     12909     12912     12913     12911     12909     12912     12914
     12911     12909     12912     12915     12912     12915     12918     12919
     12912     12915     12918     12920     12912     12915     12918     12921
     12913     12912     12915     12916     12913     12912     12915     12917
     12913     12912     12915     12918     12914     12912     12915     12916
     12914     12912     12915     12917     12914     12912     12915     12918
     12915     12918     12921     12922     12915     12918     12921     12923
     12915     12918     12921     12924     12916     12915     12918     12919
     12916     12915     12918     12920     12916     12915     12918     12921
     12917     12915     12918     12919     12917     12915     12918     12920
     12917     12915     12918     12921     12918     12921     12924     12925
     12918     12921     12924     12926     12918     12921     12924     12927
     12919     12918     12921     12922     12919     12918     12921     12923
     12919     12918     12921     12924     12920     12918     12921     12922
     12920     12918     12921     12923     12920     12918     12921     12924
     12921     12924     12927     12928     12921     12924     12927     12929
     12921     12924     12927     12930     12922     12921     12924     12925
     12922     12921     12924     12926     12922     12921     12924     12927
     12923     12921     12924     12925     12923     12921     12924     12926
     12923     12921     12924     12927     12924     12927     12930     12931
     12924     12927     12930     12932     12924     12927     12930     12933
     12925     12924     12927     12928     12925     12924     12927     12929
     12925     12924     12927     12930     12926     12924     12927     12928
     12926     12924     12927     12929     12926     12924     12927     12930
     12928     12927     12930     12931     12928     12927     12930     12932
     12928     12927     12930     12933     12929     12927     12930     12931
     12929     12927     12930     12932     12929     12927     12930     12933
     12934     12937     12940     12941     12934     12937     12940     12942
     12934     12937     12940     12943     12935     12934     12937     12938
     12935     12934     12937     12939     12935     12934     12937     12940
     12936     12934     12937     12938     12936     12934     12937     12939
     12936     12934     12937     12940     12937     12940     12943     12944
     12937     12940     12943     12945     12937     12940     12943     12946
     12938     12937     12940     12941     12938     12937     12940     12942
     12938     12937     12940     12943     12939     12937     12940     12941
     12939     12937     12940     12942     12939     12937     12940     12943
     12940     12943     12946     12947     12940     12943     12946     12948
     12940     12943     12946     12949     12941     12940     12943     12944
     12941     12940     12943     12945     12941     12940     12943     12946
     12942     12940     12943     12944     12942     12940     12943     12945
     12942     12940     12943     12946     12943     12946     12949     12950
     12943     12946     12949     12951     12943     12946     12949     12952
     12944     12943     12946     12947     12944     12943     12946     12948
     12944     12943     12946     12949     12945     12943     12946     12947
     12945     12943     12946     12948     12945     12943     12946     12949
     12946     12949     12952     12953     12946     12949     12952     12954
     12946     12949     12952     12955     12947     12946     12949     12950
     12947     12946     12949     12951     12947     12946     12949     12952
     12948     12946     12949     12950     12948     12946     12949     12951
     12948     12946     12949     12952     12949     12952     12955     12956
     12949     12952     12955     12957     12949     12952     12955     12958
     12950     12949     12952     12953     12950     12949     12952     12954
     12950     12949     12952     12955     12951     12949     12952     12953
     12951     12949     12952     12954     12951     12949     12952     12955
     12952     12955     12958     12959     12952     12955     12958     12960
     12952     12955     12958     12961     12953     12952     12955     12956
     12953     12952     12955     12957     12953     12952     12955     12958
     12954     12952     12955     12956     12954     12952     12955     12957
     12954     12952     12955     12958     12955     12958     12961     12962
     12955     12958     12961     12963     12955     12958     12961     12964
     12956     12955     12958     12959     12956     12955     12958     12960
     12956     12955     12958     12961     12957     12955     12958     12959
     12957     12955     12958     12960     12957     12955     12958     12961
     12958     12961     12964     12965     12958     12961     12964     12966
     12958     12961     12964     12967     12959     12958     12961     12962
     12959     12958     12961     12963     12959     12958     12961     12964
     12960     12958     12961     12962     12960     12958     12961     12963
     12960     12958     12961     12964     12961     12964     12967     12968
     12961     12964     12967     12969     12961     12964     12967     12970
     12962     12961     12964     12965     12962     12961     12964     12966
     12962     12961     12964     12967     12963     12961     12964     12965
     12963     12961     12964     12966     12963     12961     12964     12967
     12964     12967     12970     12971     12964     12967     12970     12972
     12964     12967     12970     12973     12965     12964     12967     12968
     12965     12964     12967     12969     12965     12964     12967     12970
     12966     12964     12967     12968     12966     12964     12967     12969
     12966     12964     12967     12970     12967     12970     12973     12974
     12967     12970     12973     12975     12967     12970     12973     12976
     12968     12967     12970     12971     12968     12967     12970     12972
     12968     12967     12970     12973     12969     12967     12970     12971
     12969     12967     12970     12972     12969     12967     12970     12973
     12971     12970     12973     12974     12971     12970     12973     12975
     12971     12970     12973     12976     12972     12970     12973     12974
     12972     12970     12973     12975     12972     12970     12973     12976
     12977     12978     12993     12994     12977     12978     12993     12995
     12977     12978     12993     12999     12978     12977     12981     12982
     12978     12977     12981     12983     12978     12977     12981     12984
     12978     12977     12985     12986     12978     12977     12985     12987
     12978     12977     12985     12988     12978     12977     12989     12990
     12978     12977     12989     12991     12978     12977     12989     12992
     12978     12993     12999     12996     12979     12978     12977     12981
     12979     12978     12977     12985     12979     12978     12977     12989
     12979     12978     12993     12994     12979     12978     12993     12995
     12979     12978     12993     12999     12980     12978     12977     12981
     12980     12978     12977     12985     12980     12978     12977     12989
     12980     12978     12993     12994     12980     12978     12993     12995
     12980     12978     12993     12999     12981     12977     12978     12993
     12981     12977     12985     12986     12981     12977     12985     12987
     12981     12977     12985     12988     12981     12977     12989     12990
     12981     12977     12989     12991     12981     12977     12989     12992
     12982     12981     12977     12985     12982     12981     12977     12989
     12983     12981     12977     12985     12983     12981     12977     12989
     12984     12981     12977     12985     12984     12981     12977     12989
     12985     12977     12978     12993     12985     12977     12989     12990
     12985     12977     12989     12991     12985     12977     12989     12992
     12986     12985     12977     12989     12987     12985     12977     12989
     12988     12985     12977     12989     12989     12977     12978     12993
     12993     12999     12996     12997     12993     12999     12996     12998
     12993     12999     12996     13000     12994     12993     12999     12996
     12995     12993     12999     12996     12996     13000     13001     13002
     12996     13000     13001     13003     12996     13000     13001     13004
     12997     12996     13000     13001     12998     12996     13000     13001
     12999     12996     13000     13001     13000     13001     13004     13005
     13000     13001     13004     13006     13000     13001     13004     13012
     13001     13004     13006     13007     13001     13004     13012     13013
     13001     13004     13012     13014     13001     13004     13012     13015
     13002     13001     13004     13005     13002     13001     13004     13006
     13002     13001     13004     13012     13003     13001     13004     13005
     13003     13001     13004     13006     13003     13001     13004     13012
     13004     13006     13007     13008     13004     13006     13007     13009
     13004     13012     13015     13016     13005     13004     13006     13007
     13005     13004     13012     13013     13005     13004     13012     13014
     13005     13004     13012     13015     13006     13004     13012     13013
     13006     13004     13012     13014     13006     13004     13012     13015
     13006     13007     13009     13010     13006     13007     13009     13011
     13006     13007     13009     13021     13007     13006     13004     13012
     13007     13009     13021     13022     13007     13009     13021     13023
     13007     13009     13021     13024     13008     13007     13009     13010
     13008     13007     13009     13011     13008     13007     13009     13021
     13009     13021     13024     13025     13009     13021     13024     13026
     13009     13021     13024     13027     13010     13009     13021     13022
     13010     13009     13021     13023     13010     13009     13021     13024
     13011     13009     13021     13022     13011     13009     13021     13023
     13011     13009     13021     13024     13012     13015     13016     13017
     13012     13015     13016     13018     13013     13012     13015     13016
     13014     13012     13015     13016     13015     13016     13018     13019
     13015     13016     13018     13020     13015     13016     13018     13068
     13016     13018     13068     13069     13016     13018     13068     13070
     13016     13018     13068     13071     13017     13016     13018     13019
     13017     13016     13018     13020     13017     13016     13018     13068
     13018     13068     13071     13072     13018     13068     13071     13073
     13018     13068     13071     13074     13019     13018     13068     13069
     13019     13018     13068     13070     13019     13018     13068     13071
     13020     13018     13068     13069     13020     13018     13068     13070
     13020     13018     13068     13071     13021     13024     13027     13028
     13021     13024     13027     13029     13021     13024     13027     13030
     13022     13021     13024     13025     13022     13021     13024     13026
     13022     13021     13024     13027     13023     13021     13024     13025
     13023     13021     13024     13026     13023     13021     13024     13027
     13024     13027     13030     13031     13024     13027     13030     13032
     13024     13027     13030     13033     13025     13024     13027     13028
     13025     13024     13027     13029     13025     13024     13027     13030
     13026     13024     13027     13028     13026     13024     13027     13029
     13026     13024     13027     13030     13027     13030     13033     13034
     13027     13030     13033     13035     13027     13030     13033     13036
     13028     13027     13030     13031     13028     13027     13030     13032
     13028     13027     13030     13033     13029     13027     13030     13031
     13029     13027     13030     13032     13029     13027     13030     13033
     13030     13033     13036     13037     13030     13033     13036     13038
     13030     13033     13036     13039     13031     13030     13033     13034
     13031     13030     13033     13035     13031     13030     13033     13036
     13032     13030     13033     13034     13032     13030     13033     13035
     13032     13030     13033     13036     13033     13036     13039     13040
     13033     13036     13039     13041     13034     13033     13036     13037
     13034     13033     13036     13038     13034     13033     13036     13039
     13035     13033     13036     13037     13035     13033     13036     13038
     13035     13033     13036     13039     13036     13039     13041     13042
     13036     13039     13041     13043     13037     13036     13039     13040
     13037     13036     13039     13041     13038     13036     13039     13040
     13038     13036     13039     13041     13039     13041     13043     13044
     13039     13041     13043     13045     13039     13041     13043     13046
     13040     13039     13041     13042     13040     13039     13041     13043
     13041     13043     13046     13047     13041     13043     13046     13048
     13041     13043     13046     13049     13042     13041     13043     13044
     13042     13041     13043     13045     13042     13041     13043     13046
     13043     13046     13049     13050     13043     13046     13049     13051
     13043     13046     13049     13052     13044     13043     13046     13047
     13044     13043     13046     13048     13044     13043     13046     13049
     13045     13043     13046     13047     13045     13043     13046     13048
     13045     13043     13046     13049     13046     13049     13052     13053
     13046     13049     13052     13054     13046     13049     13052     13055
     13047     13046     13049     13050     13047     13046     13049     13051
     13047     13046     13049     13052     13048     13046     13049     13050
     13048     13046     13049     13051     13048     13046     13049     13052
     13049     13052     13055     13056     13049     13052     13055     13057
     13049     13052     13055     13058     13050     13049     13052     13053
     13050     13049     13052     13054     13050     13049     13052     13055
     13051     13049     13052     13053     13051     13049     13052     13054
     13051     13049     13052     13055     13052     13055     13058     13059
     13052     13055     13058     13060     13052     13055     13058     13061
     13053     13052     13055     13056     13053     13052     13055     13057
     13053     13052     13055     13058     13054     13052     13055     13056
     13054     13052     13055     13057     13054     13052     13055     13058
     13055     13058     13061     13062     13055     13058     13061     13063
     13055     13058     13061     13064     13056     13055     13058     13059
     13056     13055     13058     13060     13056     13055     13058     13061
     13057     13055     13058     13059     13057     13055     13058     13060
     13057     13055     13058     13061     13058     13061     13064     13065
     13058     13061     13064     13066     13058     13061     13064     13067
     13059     13058     13061     13062     13059     13058     13061     13063
     13059     13058     13061     13064     13060     13058     13061     13062
     13060     13058     13061     13063     13060     13058     13061     13064
     13062     13061     13064     13065     13062     13061     13064     13066
     13062     13061     13064     13067     13063     13061     13064     13065
     13063     13061     13064     13066     13063     13061     13064     13067
     13068     13071     13074     13075     13068     13071     13074     13076
     13068     13071     13074     13077     13069     13068     13071     13072
     13069     13068     13071     13073     13069     13068     13071     13074
     13070     13068     13071     13072     13070     13068     13071     13073
     13070     13068     13071     13074     13071     13074     13077     13078
     13071     13074     13077     13079     13071     13074     13077     13080
     13072     13071     13074     13075     13072     13071     13074     13076
     13072     13071     13074     13077     13073     13071     13074     13075
     13073     13071     13074     13076     13073     13071     13074     13077
     13074     13077     13080     13081     13074     13077     13080     13082
     13074     13077     13080     13083     13075     13074     13077     13078
     13075     13074     13077     13079     13075     13074     13077     13080
     13076     13074     13077     13078     13076     13074     13077     13079
     13076     13074     13077     13080     13077     13080     13083     13084
     13077     13080     13083     13085     13077     13080     13083     13086
     13078     13077     13080     13081     13078     13077     13080     13082
     13078     13077     13080     13083     13079     13077     13080     13081
     13079     13077     13080     13082     13079     13077     13080     13083
     13080     13083     13086     13087     13080     13083     13086     13088
     13080     13083     13086     13089     13081     13080     13083     13084
     13081     13080     13083     13085     13081     13080     13083     13086
     13082     13080     13083     13084     13082     13080     13083     13085
     13082     13080     13083     13086     13083     13086     13089     13090
     13083     13086     13089     13091     13083     13086     13089     13092
     13084     13083     13086     13087     13084     13083     13086     13088
     13084     13083     13086     13089     13085     13083     13086     13087
     13085     13083     13086     13088     13085     13083     13086     13089
     13086     13089     13092     13093     13086     13089     13092     13094
     13086     13089     13092     13095     13087     13086     13089     13090
     13087     13086     13089     13091     13087     13086     13089     13092
     13088     13086     13089     13090     13088     13086     13089     13091
     13088     13086     13089     13092     13089     13092     13095     13096
     13089     13092     13095     13097     13089     13092     13095     13098
     13090     13089     13092     13093     13090     13089     13092     13094
     13090     13089     13092     13095     13091     13089     13092     13093
     13091     13089     13092     13094     13091     13089     13092     13095
     13092     13095     13098     13099     13092     13095     13098     13100
     13092     13095     13098     13101     13093     13092     13095     13096
     13093     13092     13095     13097     13093     13092     13095     13098
     13094     13092     13095     13096     13094     13092     13095     13097
     13094     13092     13095     13098     13095     13098     13101     13102
     13095     13098     13101     13103     13095     13098     13101     13104
     13096     13095     13098     13099     13096     13095     13098     13100
     13096     13095     13098     13101     13097     13095     13098     13099
     13097     13095     13098     13100     13097     13095     13098     13101
     13098     13101     13104     13105     13098     13101     13104     13106
     13098     13101     13104     13107     13099     13098     13101     13102
     13099     13098     13101     13103     13099     13098     13101     13104
     13100     13098     13101     13102     13100     13098     13101     13103
     13100     13098     13101     13104     13101     13104     13107     13108
     13101     13104     13107     13109     13101     13104     13107     13110
     13102     13101     13104     13105     13102     13101     13104     13106
     13102     13101     13104     13107     13103     13101     13104     13105
     13103     13101     13104     13106     13103     13101     13104     13107
     13105     13104     13107     13108     13105     13104     13107     13109
     13105     13104     13107     13110     13106     13104     13107     13108
     13106     13104     13107     13109     13106     13104     13107     13110
     13111     13112     13127     13128     13111     13112     13127     13129
     13111     13112     13127     13133     13112     13111     13115     13116
     13112     13111     13115     13117     13112     13111     13115     13118
     13112     13111     13119     13120     13112     13111     13119     13121
     13112     13111     13119     13122     13112     13111     13123     13124
     13112     13111     13123     13125     13112     13111     13123     13126
     13112     13127     13133     13130     13113     13112     13111     13115
     13113     13112     13111     13119     13113     13112     13111     13123
     13113     13112     13127     13128     13113     13112     13127     13129
     13113     13112     13127     13133     13114     13112     13111     13115
     13114     13112     13111     13119     13114     13112     13111     13123
     13114     13112     13127     13128     13114     13112     13127     13129
     13114     13112     13127     13133     13115     13111     13112     13127
     13115     13111     13119     13120     13115     13111     13119     13121
     13115     13111     13119     13122     13115     13111     13123     13124
     13115     13111     13123     13125     13115     13111     13123     13126
     13116     13115     13111     13119     13116     13115     13111     13123
     13117     13115     13111     13119     13117     13115     13111     13123
     13118     13115     13111     13119     13118     13115     13111     13123
     13119     13111     13112     13127     13119     13111     13123     13124
     13119     13111     13123     13125     13119     13111     13123     13126
     13120     13119     13111     13123     13121     13119     13111     13123
     13122     13119     13111     13123     13123     13111     13112     13127
     13127     13133     13130     13131     13127     13133     13130     13132
     13127     13133     13130     13134     13128     13127     13133     13130
     13129     13127     13133     13130     13130     13134     13135     13136
     13130     13134     13135     13137     13130     13134     13135     13138
     13131     13130     13134     13135     13132     13130     13134     13135
     13133     13130     13134     13135     13134     13135     13138     13139
     13134     13135     13138     13140     13134     13135     13138     13146
     13135     13138     13140     13141     13135     13138     13146     13147
     13135     13138     13146     13148     13135     13138     13146     13149
     13136     13135     13138     13139     13136     13135     13138     13140
     13136     13135     13138     13146     13137     13135     13138     13139
     13137     13135     13138     13140     13137     13135     13138     13146
     13138     13140     13141     13142     13138     13140     13141     13143
     13138     13146     13149     13150     13139     13138     13140     13141
     13139     13138     13146     13147     13139     13138     13146     13148
     13139     13138     13146     13149     13140     13138     13146     13147
     13140     13138     13146     13148     13140     13138     13146     13149
     13140     13141     13143     13144     13140     13141     13143     13145
     13140     13141     13143     13155     13141     13140     13138     13146
     13141     13143     13155     13156     13141     13143     13155     13157
     13141     13143     13155     13158     13142     13141     13143     13144
     13142     13141     13143     13145     13142     13141     13143     13155
     13143     13155     13158     13159     13143     13155     13158     13160
     13143     13155     13158     13161     13144     13143     13155     13156
     13144     13143     13155     13157     13144     13143     13155     13158
     13145     13143     13155     13156     13145     13143     13155     13157
     13145     13143     13155     13158     13146     13149     13150     13151
     13146     13149     13150     13152     13147     13146     13149     13150
     13148     13146     13149     13150     13149     13150     13152     13153
     13149     13150     13152     13154     13149     13150     13152     13202
     13150     13152     13202     13203     13150     13152     13202     13204
     13150     13152     13202     13205     13151     13150     13152     13153
     13151     13150     13152     13154     13151     13150     13152     13202
     13152     13202     13205     13206     13152     13202     13205     13207
     13152     13202     13205     13208     13153     13152     13202     13203
     13153     13152     13202     13204     13153     13152     13202     13205
     13154     13152     13202     13203     13154     13152     13202     13204
     13154     13152     13202     13205     13155     13158     13161     13162
     13155     13158     13161     13163     13155     13158     13161     13164
     13156     13155     13158     13159     13156     13155     13158     13160
     13156     13155     13158     13161     13157     13155     13158     13159
     13157     13155     13158     13160     13157     13155     13158     13161
     13158     13161     13164     13165     13158     13161     13164     13166
     13158     13161     13164     13167     13159     13158     13161     13162
     13159     13158     13161     13163     13159     13158     13161     13164
     13160     13158     13161     13162     13160     13158     13161     13163
     13160     13158     13161     13164     13161     13164     13167     13168
     13161     13164     13167     13169     13161     13164     13167     13170
     13162     13161     13164     13165     13162     13161     13164     13166
     13162     13161     13164     13167     13163     13161     13164     13165
     13163     13161     13164     13166     13163     13161     13164     13167
     13164     13167     13170     13171     13164     13167     13170     13172
     13164     13167     13170     13173     13165     13164     13167     13168
     13165     13164     13167     13169     13165     13164     13167     13170
     13166     13164     13167     13168     13166     13164     13167     13169
     13166     13164     13167     13170     13167     13170     13173     13174
     13167     13170     13173     13175     13168     13167     13170     13171
     13168     13167     13170     13172     13168     13167     13170     13173
     13169     13167     13170     13171     13169     13167     13170     13172
     13169     13167     13170     13173     13170     13173     13175     13176
     13170     13173     13175     13177     13171     13170     13173     13174
     13171     13170     13173     13175     13172     13170     13173     13174
     13172     13170     13173     13175     13173     13175     13177     13178
     13173     13175     13177     13179     13173     13175     13177     13180
     13174     13173     13175     13176     13174     13173     13175     13177
     13175     13177     13180     13181     13175     13177     13180     13182
     13175     13177     13180     13183     13176     13175     13177     13178
     13176     13175     13177     13179     13176     13175     13177     13180
     13177     13180     13183     13184     13177     13180     13183     13185
     13177     13180     13183     13186     13178     13177     13180     13181
     13178     13177     13180     13182     13178     13177     13180     13183
     13179     13177     13180     13181     13179     13177     13180     13182
     13179     13177     13180     13183     13180     13183     13186     13187
     13180     13183     13186     13188     13180     13183     13186     13189
     13181     13180     13183     13184     13181     13180     13183     13185
     13181     13180     13183     13186     13182     13180     13183     13184
     13182     13180     13183     13185     13182     13180     13183     13186
     13183     13186     13189     13190     13183     13186     13189     13191
     13183     13186     13189     13192     13184     13183     13186     13187
     13184     13183     13186     13188     13184     13183     13186     13189
     13185     13183     13186     13187     13185     13183     13186     13188
     13185     13183     13186     13189     13186     13189     13192     13193
     13186     13189     13192     13194     13186     13189     13192     13195
     13187     13186     13189     13190     13187     13186     13189     13191
     13187     13186     13189     13192     13188     13186     13189     13190
     13188     13186     13189     13191     13188     13186     13189     13192
     13189     13192     13195     13196     13189     13192     13195     13197
     13189     13192     13195     13198     13190     13189     13192     13193
     13190     13189     13192     13194     13190     13189     13192     13195
     13191     13189     13192     13193     13191     13189     13192     13194
     13191     13189     13192     13195     13192     13195     13198     13199
     13192     13195     13198     13200     13192     13195     13198     13201
     13193     13192     13195     13196     13193     13192     13195     13197
     13193     13192     13195     13198     13194     13192     13195     13196
     13194     13192     13195     13197     13194     13192     13195     13198
     13196     13195     13198     13199     13196     13195     13198     13200
     13196     13195     13198     13201     13197     13195     13198     13199
     13197     13195     13198     13200     13197     13195     13198     13201
     13202     13205     13208     13209     13202     13205     13208     13210
     13202     13205     13208     13211     13203     13202     13205     13206
     13203     13202     13205     13207     13203     13202     13205     13208
     13204     13202     13205     13206     13204     13202     13205     13207
     13204     13202     13205     13208     13205     13208     13211     13212
     13205     13208     13211     13213     13205     13208     13211     13214
     13206     13205     13208     13209     13206     13205     13208     13210
     13206     13205     13208     13211     13207     13205     13208     13209
     13207     13205     13208     13210     13207     13205     13208     13211
     13208     13211     13214     13215     13208     13211     13214     13216
     13208     13211     13214     13217     13209     13208     13211     13212
     13209     13208     13211     13213     13209     13208     13211     13214
     13210     13208     13211     13212     13210     13208     13211     13213
     13210     13208     13211     13214     13211     13214     13217     13218
     13211     13214     13217     13219     13211     13214     13217     13220
     13212     13211     13214     13215     13212     13211     13214     13216
     13212     13211     13214     13217     13213     13211     13214     13215
     13213     13211     13214     13216     13213     13211     13214     13217
     13214     13217     13220     13221     13214     13217     13220     13222
     13214     13217     13220     13223     13215     13214     13217     13218
     13215     13214     13217     13219     13215     13214     13217     13220
     13216     13214     13217     13218     13216     13214     13217     13219
     13216     13214     13217     13220     13217     13220     13223     13224
     13217     13220     13223     13225     13217     13220     13223     13226
     13218     13217     13220     13221     13218     13217     13220     13222
     13218     13217     13220     13223     13219     13217     13220     13221
     13219     13217     13220     13222     13219     13217     13220     13223
     13220     13223     13226     13227     13220     13223     13226     13228
     13220     13223     13226     13229     13221     13220     13223     13224
     13221     13220     13223     13225     13221     13220     13223     13226
     13222     13220     13223     13224     13222     13220     13223     13225
     13222     13220     13223     13226     13223     13226     13229     13230
     13223     13226     13229     13231     13223     13226     13229     13232
     13224     13223     13226     13227     13224     13223     13226     13228
     13224     13223     13226     13229     13225     13223     13226     13227
     13225     13223     13226     13228     13225     13223     13226     13229
     13226     13229     13232     13233     13226     13229     13232     13234
     13226     13229     13232     13235     13227     13226     13229     13230
     13227     13226     13229     13231     13227     13226     13229     13232
     13228     13226     13229     13230     13228     13226     13229     13231
     13228     13226     13229     13232     13229     13232     13235     13236
     13229     13232     13235     13237     13229     13232     13235     13238
     13230     13229     13232     13233     13230     13229     13232     13234
     13230     13229     13232     13235     13231     13229     13232     13233
     13231     13229     13232     13234     13231     13229     13232     13235
     13232     13235     13238     13239     13232     13235     13238     13240
     13232     13235     13238     13241     13233     13232     13235     13236
     13233     13232     13235     13237     13233     13232     13235     13238
     13234     13232     13235     13236     13234     13232     13235     13237
     13234     13232     13235     13238     13235     13238     13241     13242
     13235     13238     13241     13243     13235     13238     13241     13244
     13236     13235     13238     13239     13236     13235     13238     13240
     13236     13235     13238     13241     13237     13235     13238     13239
     13237     13235     13238     13240     13237     13235     13238     13241
     13239     13238     13241     13242     13239     13238     13241     13243
     13239     13238     13241     13244     13240     13238     13241     13242
     13240     13238     13241     13243     13240     13238     13241     13244
     13245     13246     13261     13262     13245     13246     13261     13263
     13245     13246     13261     13267     13246     13245     13249     13250
     13246     13245     13249     13251     13246     13245     13249     13252
     13246     13245     13253     13254     13246     13245     13253     13255
     13246     13245     13253     13256     13246     13245     13257     13258
     13246     13245     13257     13259     13246     13245     13257     13260
     13246     13261     13267     13264     13247     13246     13245     13249
     13247     13246     13245     13253     13247     13246     13245     13257
     13247     13246     13261     13262     13247     13246     13261     13263
     13247     13246     13261     13267     13248     13246     13245     13249
     13248     13246     13245     13253     13248     13246     13245     13257
     13248     13246     13261     13262     13248     13246     13261     13263
     13248     13246     13261     13267     13249     13245     13246     13261
     13249     13245     13253     13254     13249     13245     13253     13255
     13249     13245     13253     13256     13249     13245     13257     13258
     13249     13245     13257     13259     13249     13245     13257     13260
     13250     13249     13245     13253     13250     13249     13245     13257
     13251     13249     13245     13253     13251     13249     13245     13257
     13252     13249     13245     13253     13252     13249     13245     13257
     13253     13245     13246     13261     13253     13245     13257     13258
     13253     13245     13257     13259     13253     13245     13257     13260
     13254     13253     13245     13257     13255     13253     13245     13257
     13256     13253     13245     13257     13257     13245     13246     13261
     13261     13267     13264     13265     13261     13267     13264     13266
     13261     13267     13264     13268     13262     13261     13267     13264
     13263     13261     13267     13264     13264     13268     13269     13270
     13264     13268     13269     13271     13264     13268     13269     13272
     13265     13264     13268     13269     13266     13264     13268     13269
     13267     13264     13268     13269     13268     13269     13272     13273
     13268     13269     13272     13274     13268     13269     13272     13280
     13269     13272     13274     13275     13269     13272     13280     13281
     13269     13272     13280     13282     13269     13272     13280     13283
     13270     13269     13272     13273     13270     13269     13272     13274
     13270     13269     13272     13280     13271     13269     13272     13273
     13271     13269     13272     13274     13271     13269     13272     13280
     13272     13274     13275     13276     13272     13274     13275     13277
     13272     13280     13283     13284     13273     13272     13274     13275
     13273     13272     13280     13281     13273     13272     13280     13282
     13273     13272     13280     13283     13274     13272     13280     13281
     13274     13272     13280     13282     13274     13272     13280     13283
     13274     13275     13277     13278     13274     13275     13277     13279
     13274     13275     13277     13289     13275     13274     13272     13280
     13275     13277     13289     13290     13275     13277     13289     13291
     13275     13277     13289     13292     13276     13275     13277     13278
     13276     13275     13277     13279     13276     13275     13277     13289
     13277     13289     13292     13293     13277     13289     13292     13294
     13277     13289     13292     13295     13278     13277     13289     13290
     13278     13277     13289     13291     13278     13277     13289     13292
     13279     13277     13289     13290     13279     13277     13289     13291
     13279     13277     13289     13292     13280     13283     13284     13285
     13280     13283     13284     13286     13281     13280     13283     13284
     13282     13280     13283     13284     13283     13284     13286     13287
     13283     13284     13286     13288     13283     13284     13286     13336
     13284     13286     13336     13337     13284     13286     13336     13338
     13284     13286     13336     13339     13285     13284     13286     13287
     13285     13284     13286     13288     13285     13284     13286     13336
     13286     13336     13339     13340     13286     13336     13339     13341
     13286     13336     13339     13342     13287     13286     13336     13337
     13287     13286     13336     13338     13287     13286     13336     13339
     13288     13286     13336     13337     13288     13286     13336     13338
     13288     13286     13336     13339     13289     13292     13295     13296
     13289     13292     13295     13297     13289     13292     13295     13298
     13290     13289     13292     13293     13290     13289     13292     13294
     13290     13289     13292     13295     13291     13289     13292     13293
     13291     13289     13292     13294     13291     13289     13292     13295
     13292     13295     13298     13299     13292     13295     13298     13300
     13292     13295     13298     13301     13293     13292     13295     13296
     13293     13292     13295     13297     13293     13292     13295     13298
     13294     13292     13295     13296     13294     13292     13295     13297
     13294     13292     13295     13298     13295     13298     13301     13302
     13295     13298     13301     13303     13295     13298     13301     13304
     13296     13295     13298     13299     13296     13295     13298     13300
     13296     13295     13298     13301     13297     13295     13298     13299
     13297     13295     13298     13300     13297     13295     13298     13301
     13298     13301     13304     13305     13298     13301     13304     13306
     13298     13301     13304     13307     13299     13298     13301     13302
     13299     13298     13301     13303     13299     13298     13301     13304
     13300     13298     13301     13302     13300     13298     13301     13303
     13300     13298     13301     13304     13301     13304     13307     13308
     13301     13304     13307     13309     13302     13301     13304     13305
     13302     13301     13304     13306     13302     13301     13304     13307
     13303     13301     13304     13305     13303     13301     13304     13306
     13303     13301     13304     13307     13304     13307     13309     13310
     13304     13307     13309     13311     13305     13304     13307     13308
     13305     13304     13307     13309     13306     13304     13307     13308
     13306     13304     13307     13309     13307     13309     13311     13312
     13307     13309     13311     13313     13307     13309     13311     13314
     13308     13307     13309     13310     13308     13307     13309     13311
     13309     13311     13314     13315     13309     13311     13314     13316
     13309     13311     13314     13317     13310     13309     13311     13312
     13310     13309     13311     13313     13310     13309     13311     13314
     13311     13314     13317     13318     13311     13314     13317     13319
     13311     13314     13317     13320     13312     13311     13314     13315
     13312     13311     13314     13316     13312     13311     13314     13317
     13313     13311     13314     13315     13313     13311     13314     13316
     13313     13311     13314     13317     13314     13317     13320     13321
     13314     13317     13320     13322     13314     13317     13320     13323
     13315     13314     13317     13318     13315     13314     13317     13319
     13315     13314     13317     13320     13316     13314     13317     13318
     13316     13314     13317     13319     13316     13314     13317     13320
     13317     13320     13323     13324     13317     13320     13323     13325
     13317     13320     13323     13326     13318     13317     13320     13321
     13318     13317     13320     13322     13318     13317     13320     13323
     13319     13317     13320     13321     13319     13317     13320     13322
     13319     13317     13320     13323     13320     13323     13326     13327
     13320     13323     13326     13328     13320     13323     13326     13329
     13321     13320     13323     13324     13321     13320     13323     13325
     13321     13320     13323     13326     13322     13320     13323     13324
     13322     13320     13323     13325     13322     13320     13323     13326
     13323     13326     13329     13330     13323     13326     13329     13331
     13323     13326     13329     13332     13324     13323     13326     13327
     13324     13323     13326     13328     13324     13323     13326     13329
     13325     13323     13326     13327     13325     13323     13326     13328
     13325     13323     13326     13329     13326     13329     13332     13333
     13326     13329     13332     13334     13326     13329     13332     13335
     13327     13326     13329     13330     13327     13326     13329     13331
     13327     13326     13329     13332     13328     13326     13329     13330
     13328     13326     13329     13331     13328     13326     13329     13332
     13330     13329     13332     13333     13330     13329     13332     13334
     13330     13329     13332     13335     13331     13329     13332     13333
     13331     13329     13332     13334     13331     13329     13332     13335
     13336     13339     13342     13343     13336     13339     13342     13344
     13336     13339     13342     13345     13337     13336     13339     13340
     13337     13336     13339     13341     13337     13336     13339     13342
     13338     13336     13339     13340     13338     13336     13339     13341
     13338     13336     13339     13342     13339     13342     13345     13346
     13339     13342     13345     13347     13339     13342     13345     13348
     13340     13339     13342     13343     13340     13339     13342     13344
     13340     13339     13342     13345     13341     13339     13342     13343
     13341     13339     13342     13344     13341     13339     13342     13345
     13342     13345     13348     13349     13342     13345     13348     13350
     13342     13345     13348     13351     13343     13342     13345     13346
     13343     13342     13345     13347     13343     13342     13345     13348
     13344     13342     13345     13346     13344     13342     13345     13347
     13344     13342     13345     13348     13345     13348     13351     13352
     13345     13348     13351     13353     13345     13348     13351     13354
     13346     13345     13348     13349     13346     13345     13348     13350
     13346     13345     13348     13351     13347     13345     13348     13349
     13347     13345     13348     13350     13347     13345     13348     13351
     13348     13351     13354     13355     13348     13351     13354     13356
     13348     13351     13354     13357     13349     13348     13351     13352
     13349     13348     13351     13353     13349     13348     13351     13354
     13350     13348     13351     13352     13350     13348     13351     13353
     13350     13348     13351     13354     13351     13354     13357     13358
     13351     13354     13357     13359     13351     13354     13357     13360
     13352     13351     13354     13355     13352     13351     13354     13356
     13352     13351     13354     13357     13353     13351     13354     13355
     13353     13351     13354     13356     13353     13351     13354     13357
     13354     13357     13360     13361     13354     13357     13360     13362
     13354     13357     13360     13363     13355     13354     13357     13358
     13355     13354     13357     13359     13355     13354     13357     13360
     13356     13354     13357     13358     13356     13354     13357     13359
     13356     13354     13357     13360     13357     13360     13363     13364
     13357     13360     13363     13365     13357     13360     13363     13366
     13358     13357     13360     13361     13358     13357     13360     13362
     13358     13357     13360     13363     13359     13357     13360     13361
     13359     13357     13360     13362     13359     13357     13360     13363
     13360     13363     13366     13367     13360     13363     13366     13368
     13360     13363     13366     13369     13361     13360     13363     13364
     13361     13360     13363     13365     13361     13360     13363     13366
     13362     13360     13363     13364     13362     13360     13363     13365
     13362     13360     13363     13366     13363     13366     13369     13370
     13363     13366     13369     13371     13363     13366     13369     13372
     13364     13363     13366     13367     13364     13363     13366     13368
     13364     13363     13366     13369     13365     13363     13366     13367
     13365     13363     13366     13368     13365     13363     13366     13369
     13366     13369     13372     13373     13366     13369     13372     13374
     13366     13369     13372     13375     13367     13366     13369     13370
     13367     13366     13369     13371     13367     13366     13369     13372
     13368     13366     13369     13370     13368     13366     13369     13371
     13368     13366     13369     13372     13369     13372     13375     13376
     13369     13372     13375     13377     13369     13372     13375     13378
     13370     13369     13372     13373     13370     13369     13372     13374
     13370     13369     13372     13375     13371     13369     13372     13373
     13371     13369     13372     13374     13371     13369     13372     13375
     13373     13372     13375     13376     13373     13372     13375     13377
     13373     13372     13375     13378     13374     13372     13375     13376
     13374     13372     13375     13377     13374     13372     13375     13378
     13379     13380     13395     13396     13379     13380     13395     13397
     13379     13380     13395     13401     13380     13379     13383     13384
     13380     13379     13383     13385     13380     13379     13383     13386
     13380     13379     13387     13388     13380     13379     13387     13389
     13380     13379     13387     13390     13380     13379     13391     13392
     13380     13379     13391     13393     13380     13379     13391     13394
     13380     13395     13401     13398     13381     13380     13379     13383
     13381     13380     13379     13387     13381     13380     13379     13391
     13381     13380     13395     13396     13381     13380     13395     13397
     13381     13380     13395     13401     13382     13380     13379     13383
     13382     13380     13379     13387     13382     13380     13379     13391
     13382     13380     13395     13396     13382     13380     13395     13397
     13382     13380     13395     13401     13383     13379     13380     13395
     13383     13379     13387     13388     13383     13379     13387     13389
     13383     13379     13387     13390     13383     13379     13391     13392
     13383     13379     13391     13393     13383     13379     13391     13394
     13384     13383     13379     13387     13384     13383     13379     13391
     13385     13383     13379     13387     13385     13383     13379     13391
     13386     13383     13379     13387     13386     13383     13379     13391
     13387     13379     13380     13395     13387     13379     13391     13392
     13387     13379     13391     13393     13387     13379     13391     13394
     13388     13387     13379     13391     13389     13387     13379     13391
     13390     13387     13379     13391     13391     13379     13380     13395
     13395     13401     13398     13399     13395     13401     13398     13400
     13395     13401     13398     13402     13396     13395     13401     13398
     13397     13395     13401     13398     13398     13402     13403     13404
     13398     13402     13403     13405     13398     13402     13403     13406
     13399     13398     13402     13403     13400     13398     13402     13403
     13401     13398     13402     13403     13402     13403     13406     13407
     13402     13403     13406     13408     13402     13403     13406     13414
     13403     13406     13408     13409     13403     13406     13414     13415
     13403     13406     13414     13416     13403     13406     13414     13417
     13404     13403     13406     13407     13404     13403     13406     13408
     13404     13403     13406     13414     13405     13403     13406     13407
     13405     13403     13406     13408     13405     13403     13406     13414
     13406     13408     13409     13410     13406     13408     13409     13411
     13406     13414     13417     13418     13407     13406     13408     13409
     13407     13406     13414     13415     13407     13406     13414     13416
     13407     13406     13414     13417     13408     13406     13414     13415
     13408     13406     13414     13416     13408     13406     13414     13417
     13408     13409     13411     13412     13408     13409     13411     13413
     13408     13409     13411     13423     13409     13408     13406     13414
     13409     13411     13423     13424     13409     13411     13423     13425
     13409     13411     13423     13426     13410     13409     13411     13412
     13410     13409     13411     13413     13410     13409     13411     13423
     13411     13423     13426     13427     13411     13423     13426     13428
     13411     13423     13426     13429     13412     13411     13423     13424
     13412     13411     13423     13425     13412     13411     13423     13426
     13413     13411     13423     13424     13413     13411     13423     13425
     13413     13411     13423     13426     13414     13417     13418     13419
     13414     13417     13418     13420     13415     13414     13417     13418
     13416     13414     13417     13418     13417     13418     13420     13421
     13417     13418     13420     13422     13417     13418     13420     13470
     13418     13420     13470     13471     13418     13420     13470     13472
     13418     13420     13470     13473     13419     13418     13420     13421
     13419     13418     13420     13422     13419     13418     13420     13470
     13420     13470     13473     13474     13420     13470     13473     13475
     13420     13470     13473     13476     13421     13420     13470     13471
     13421     13420     13470     13472     13421     13420     13470     13473
     13422     13420     13470     13471     13422     13420     13470     13472
     13422     13420     13470     13473     13423     13426     13429     13430
     13423     13426     13429     13431     13423     13426     13429     13432
     13424     13423     13426     13427     13424     13423     13426     13428
     13424     13423     13426     13429     13425     13423     13426     13427
     13425     13423     13426     13428     13425     13423     13426     13429
     13426     13429     13432     13433     13426     13429     13432     13434
     13426     13429     13432     13435     13427     13426     13429     13430
     13427     13426     13429     13431     13427     13426     13429     13432
     13428     13426     13429     13430     13428     13426     13429     13431
     13428     13426     13429     13432     13429     13432     13435     13436
     13429     13432     13435     13437     13429     13432     13435     13438
     13430     13429     13432     13433     13430     13429     13432     13434
     13430     13429     13432     13435     13431     13429     13432     13433
     13431     13429     13432     13434     13431     13429     13432     13435
     13432     13435     13438     13439     13432     13435     13438     13440
     13432     13435     13438     13441     13433     13432     13435     13436
     13433     13432     13435     13437     13433     13432     13435     13438
     13434     13432     13435     13436     13434     13432     13435     13437
     13434     13432     13435     13438     13435     13438     13441     13442
     13435     13438     13441     13443     13436     13435     13438     13439
     13436     13435     13438     13440     13436     13435     13438     13441
     13437     13435     13438     13439     13437     13435     13438     13440
     13437     13435     13438     13441     13438     13441     13443     13444
     13438     13441     13443     13445     13439     13438     13441     13442
     13439     13438     13441     13443     13440     13438     13441     13442
     13440     13438     13441     13443     13441     13443     13445     13446
     13441     13443     13445     13447     13441     13443     13445     13448
     13442     13441     13443     13444     13442     13441     13443     13445
     13443     13445     13448     13449     13443     13445     13448     13450
     13443     13445     13448     13451     13444     13443     13445     13446
     13444     13443     13445     13447     13444     13443     13445     13448
     13445     13448     13451     13452     13445     13448     13451     13453
     13445     13448     13451     13454     13446     13445     13448     13449
     13446     13445     13448     13450     13446     13445     13448     13451
     13447     13445     13448     13449     13447     13445     13448     13450
     13447     13445     13448     13451     13448     13451     13454     13455
     13448     13451     13454     13456     13448     13451     13454     13457
     13449     13448     13451     13452     13449     13448     13451     13453
     13449     13448     13451     13454     13450     13448     13451     13452
     13450     13448     13451     13453     13450     13448     13451     13454
     13451     13454     13457     13458     13451     13454     13457     13459
     13451     13454     13457     13460     13452     13451     13454     13455
     13452     13451     13454     13456     13452     13451     13454     13457
     13453     13451     13454     13455     13453     13451     13454     13456
     13453     13451     13454     13457     13454     13457     13460     13461
     13454     13457     13460     13462     13454     13457     13460     13463
     13455     13454     13457     13458     13455     13454     13457     13459
     13455     13454     13457     13460     13456     13454     13457     13458
     13456     13454     13457     13459     13456     13454     13457     13460
     13457     13460     13463     13464     13457     13460     13463     13465
     13457     13460     13463     13466     13458     13457     13460     13461
     13458     13457     13460     13462     13458     13457     13460     13463
     13459     13457     13460     13461     13459     13457     13460     13462
     13459     13457     13460     13463     13460     13463     13466     13467
     13460     13463     13466     13468     13460     13463     13466     13469
     13461     13460     13463     13464     13461     13460     13463     13465
     13461     13460     13463     13466     13462     13460     13463     13464
     13462     13460     13463     13465     13462     13460     13463     13466
     13464     13463     13466     13467     13464     13463     13466     13468
     13464     13463     13466     13469     13465     13463     13466     13467
     13465     13463     13466     13468     13465     13463     13466     13469
     13470     13473     13476     13477     13470     13473     13476     13478
     13470     13473     13476     13479     13471     13470     13473     13474
     13471     13470     13473     13475     13471     13470     13473     13476
     13472     13470     13473     13474     13472     13470     13473     13475
     13472     13470     13473     13476     13473     13476     13479     13480
     13473     13476     13479     13481     13473     13476     13479     13482
     13474     13473     13476     13477     13474     13473     13476     13478
     13474     13473     13476     13479     13475     13473     13476     13477
     13475     13473     13476     13478     13475     13473     13476     13479
     13476     13479     13482     13483     13476     13479     13482     13484
     13476     13479     13482     13485     13477     13476     13479     13480
     13477     13476     13479     13481     13477     13476     13479     13482
     13478     13476     13479     13480     13478     13476     13479     13481
     13478     13476     13479     13482     13479     13482     13485     13486
     13479     13482     13485     13487     13479     13482     13485     13488
     13480     13479     13482     13483     13480     13479     13482     13484
     13480     13479     13482     13485     13481     13479     13482     13483
     13481     13479     13482     13484     13481     13479     13482     13485
     13482     13485     13488     13489     13482     13485     13488     13490
     13482     13485     13488     13491     13483     13482     13485     13486
     13483     13482     13485     13487     13483     13482     13485     13488
     13484     13482     13485     13486     13484     13482     13485     13487
     13484     13482     13485     13488     13485     13488     13491     13492
     13485     13488     13491     13493     13485     13488     13491     13494
     13486     13485     13488     13489     13486     13485     13488     13490
     13486     13485     13488     13491     13487     13485     13488     13489
     13487     13485     13488     13490     13487     13485     13488     13491
     13488     13491     13494     13495     13488     13491     13494     13496
     13488     13491     13494     13497     13489     13488     13491     13492
     13489     13488     13491     13493     13489     13488     13491     13494
     13490     13488     13491     13492     13490     13488     13491     13493
     13490     13488     13491     13494     13491     13494     13497     13498
     13491     13494     13497     13499     13491     13494     13497     13500
     13492     13491     13494     13495     13492     13491     13494     13496
     13492     13491     13494     13497     13493     13491     13494     13495
     13493     13491     13494     13496     13493     13491     13494     13497
     13494     13497     13500     13501     13494     13497     13500     13502
     13494     13497     13500     13503     13495     13494     13497     13498
     13495     13494     13497     13499     13495     13494     13497     13500
     13496     13494     13497     13498     13496     13494     13497     13499
     13496     13494     13497     13500     13497     13500     13503     13504
     13497     13500     13503     13505     13497     13500     13503     13506
     13498     13497     13500     13501     13498     13497     13500     13502
     13498     13497     13500     13503     13499     13497     13500     13501
     13499     13497     13500     13502     13499     13497     13500     13503
     13500     13503     13506     13507     13500     13503     13506     13508
     13500     13503     13506     13509     13501     13500     13503     13504
     13501     13500     13503     13505     13501     13500     13503     13506
     13502     13500     13503     13504     13502     13500     13503     13505
     13502     13500     13503     13506     13503     13506     13509     13510
     13503     13506     13509     13511     13503     13506     13509     13512
     13504     13503     13506     13507     13504     13503     13506     13508
     13504     13503     13506     13509     13505     13503     13506     13507
     13505     13503     13506     13508     13505     13503     13506     13509
     13507     13506     13509     13510     13507     13506     13509     13511
     13507     13506     13509     13512     13508     13506     13509     13510
     13508     13506     13509     13511     13508     13506     13509     13512
     13513     13514     13529     13530     13513     13514     13529     13531
     13513     13514     13529     13535     13514     13513     13517     13518
     13514     13513     13517     13519     13514     13513     13517     13520
     13514     13513     13521     13522     13514     13513     13521     13523
     13514     13513     13521     13524     13514     13513     13525     13526
     13514     13513     13525     13527     13514     13513     13525     13528
     13514     13529     13535     13532     13515     13514     13513     13517
     13515     13514     13513     13521     13515     13514     13513     13525
     13515     13514     13529     13530     13515     13514     13529     13531
     13515     13514     13529     13535     13516     13514     13513     13517
     13516     13514     13513     13521     13516     13514     13513     13525
     13516     13514     13529     13530     13516     13514     13529     13531
     13516     13514     13529     13535     13517     13513     13514     13529
     13517     13513     13521     13522     13517     13513     13521     13523
     13517     13513     13521     13524     13517     13513     13525     13526
     13517     13513     13525     13527     13517     13513     13525     13528
     13518     13517     13513     13521     13518     13517     13513     13525
     13519     13517     13513     13521     13519     13517     13513     13525
     13520     13517     13513     13521     13520     13517     13513     13525
     13521     13513     13514     13529     13521     13513     13525     13526
     13521     13513     13525     13527     13521     13513     13525     13528
     13522     13521     13513     13525     13523     13521     13513     13525
     13524     13521     13513     13525     13525     13513     13514     13529
     13529     13535     13532     13533     13529     13535     13532     13534
     13529     13535     13532     13536     13530     13529     13535     13532
     13531     13529     13535     13532     13532     13536     13537     13538
     13532     13536     13537     13539     13532     13536     13537     13540
     13533     13532     13536     13537     13534     13532     13536     13537
     13535     13532     13536     13537     13536     13537     13540     13541
     13536     13537     13540     13542     13536     13537     13540     13548
     13537     13540     13542     13543     13537     13540     13548     13549
     13537     13540     13548     13550     13537     13540     13548     13551
     13538     13537     13540     13541     13538     13537     13540     13542
     13538     13537     13540     13548     13539     13537     13540     13541
     13539     13537     13540     13542     13539     13537     13540     13548
     13540     13542     13543     13544     13540     13542     13543     13545
     13540     13548     13551     13552     13541     13540     13542     13543
     13541     13540     13548     13549     13541     13540     13548     13550
     13541     13540     13548     13551     13542     13540     13548     13549
     13542     13540     13548     13550     13542     13540     13548     13551
     13542     13543     13545     13546     13542     13543     13545     13547
     13542     13543     13545     13557     13543     13542     13540     13548
     13543     13545     13557     13558     13543     13545     13557     13559
     13543     13545     13557     13560     13544     13543     13545     13546
     13544     13543     13545     13547     13544     13543     13545     13557
     13545     13557     13560     13561     13545     13557     13560     13562
     13545     13557     13560     13563     13546     13545     13557     13558
     13546     13545     13557     13559     13546     13545     13557     13560
     13547     13545     13557     13558     13547     13545     13557     13559
     13547     13545     13557     13560     13548     13551     13552     13553
     13548     13551     13552     13554     13549     13548     13551     13552
     13550     13548     13551     13552     13551     13552     13554     13555
     13551     13552     13554     13556     13551     13552     13554     13604
     13552     13554     13604     13605     13552     13554     13604     13606
     13552     13554     13604     13607     13553     13552     13554     13555
     13553     13552     13554     13556     13553     13552     13554     13604
     13554     13604     13607     13608     13554     13604     13607     13609
     13554     13604     13607     13610     13555     13554     13604     13605
     13555     13554     13604     13606     13555     13554     13604     13607
     13556     13554     13604     13605     13556     13554     13604     13606
     13556     13554     13604     13607     13557     13560     13563     13564
     13557     13560     13563     13565     13557     13560     13563     13566
     13558     13557     13560     13561     13558     13557     13560     13562
     13558     13557     13560     13563     13559     13557     13560     13561
     13559     13557     13560     13562     13559     13557     13560     13563
     13560     13563     13566     13567     13560     13563     13566     13568
     13560     13563     13566     13569     13561     13560     13563     13564
     13561     13560     13563     13565     13561     13560     13563     13566
     13562     13560     13563     13564     13562     13560     13563     13565
     13562     13560     13563     13566     13563     13566     13569     13570
     13563     13566     13569     13571     13563     13566     13569     13572
     13564     13563     13566     13567     13564     13563     13566     13568
     13564     13563     13566     13569     13565     13563     13566     13567
     13565     13563     13566     13568     13565     13563     13566     13569
     13566     13569     13572     13573     13566     13569     13572     13574
     13566     13569     13572     13575     13567     13566     13569     13570
     13567     13566     13569     13571     13567     13566     13569     13572
     13568     13566     13569     13570     13568     13566     13569     13571
     13568     13566     13569     13572     13569     13572     13575     13576
     13569     13572     13575     13577     13570     13569     13572     13573
     13570     13569     13572     13574     13570     13569     13572     13575
     13571     13569     13572     13573     13571     13569     13572     13574
     13571     13569     13572     13575     13572     13575     13577     13578
     13572     13575     13577     13579     13573     13572     13575     13576
     13573     13572     13575     13577     13574     13572     13575     13576
     13574     13572     13575     13577     13575     13577     13579     13580
     13575     13577     13579     13581     13575     13577     13579     13582
     13576     13575     13577     13578     13576     13575     13577     13579
     13577     13579     13582     13583     13577     13579     13582     13584
     13577     13579     13582     13585     13578     13577     13579     13580
     13578     13577     13579     13581     13578     13577     13579     13582
     13579     13582     13585     13586     13579     13582     13585     13587
     13579     13582     13585     13588     13580     13579     13582     13583
     13580     13579     13582     13584     13580     13579     13582     13585
     13581     13579     13582     13583     13581     13579     13582     13584
     13581     13579     13582     13585     13582     13585     13588     13589
     13582     13585     13588     13590     13582     13585     13588     13591
     13583     13582     13585     13586     13583     13582     13585     13587
     13583     13582     13585     13588     13584     13582     13585     13586
     13584     13582     13585     13587     13584     13582     13585     13588
     13585     13588     13591     13592     13585     13588     13591     13593
     13585     13588     13591     13594     13586     13585     13588     13589
     13586     13585     13588     13590     13586     13585     13588     13591
     13587     13585     13588     13589     13587     13585     13588     13590
     13587     13585     13588     13591     13588     13591     13594     13595
     13588     13591     13594     13596     13588     13591     13594     13597
     13589     13588     13591     13592     13589     13588     13591     13593
     13589     13588     13591     13594     13590     13588     13591     13592
     13590     13588     13591     13593     13590     13588     13591     13594
     13591     13594     13597     13598     13591     13594     13597     13599
     13591     13594     13597     13600     13592     13591     13594     13595
     13592     13591     13594     13596     13592     13591     13594     13597
     13593     13591     13594     13595     13593     13591     13594     13596
     13593     13591     13594     13597     13594     13597     13600     13601
     13594     13597     13600     13602     13594     13597     13600     13603
     13595     13594     13597     13598     13595     13594     13597     13599
     13595     13594     13597     13600     13596     13594     13597     13598
     13596     13594     13597     13599     13596     13594     13597     13600
     13598     13597     13600     13601     13598     13597     13600     13602
     13598     13597     13600     13603     13599     13597     13600     13601
     13599     13597     13600     13602     13599     13597     13600     13603
     13604     13607     13610     13611     13604     13607     13610     13612
     13604     13607     13610     13613     13605     13604     13607     13608
     13605     13604     13607     13609     13605     13604     13607     13610
     13606     13604     13607     13608     13606     13604     13607     13609
     13606     13604     13607     13610     13607     13610     13613     13614
     13607     13610     13613     13615     13607     13610     13613     13616
     13608     13607     13610     13611     13608     13607     13610     13612
     13608     13607     13610     13613     13609     13607     13610     13611
     13609     13607     13610     13612     13609     13607     13610     13613
     13610     13613     13616     13617     13610     13613     13616     13618
     13610     13613     13616     13619     13611     13610     13613     13614
     13611     13610     13613     13615     13611     13610     13613     13616
     13612     13610     13613     13614     13612     13610     13613     13615
     13612     13610     13613     13616     13613     13616     13619     13620
     13613     13616     13619     13621     13613     13616     13619     13622
     13614     13613     13616     13617     13614     13613     13616     13618
     13614     13613     13616     13619     13615     13613     13616     13617
     13615     13613     13616     13618     13615     13613     13616     13619
     13616     13619     13622     13623     13616     13619     13622     13624
     13616     13619     13622     13625     13617     13616     13619     13620
     13617     13616     13619     13621     13617     13616     13619     13622
     13618     13616     13619     13620     13618     13616     13619     13621
     13618     13616     13619     13622     13619     13622     13625     13626
     13619     13622     13625     13627     13619     13622     13625     13628
     13620     13619     13622     13623     13620     13619     13622     13624
     13620     13619     13622     13625     13621     13619     13622     13623
     13621     13619     13622     13624     13621     13619     13622     13625
     13622     13625     13628     13629     13622     13625     13628     13630
     13622     13625     13628     13631     13623     13622     13625     13626
     13623     13622     13625     13627     13623     13622     13625     13628
     13624     13622     13625     13626     13624     13622     13625     13627
     13624     13622     13625     13628     13625     13628     13631     13632
     13625     13628     13631     13633     13625     13628     13631     13634
     13626     13625     13628     13629     13626     13625     13628     13630
     13626     13625     13628     13631     13627     13625     13628     13629
     13627     13625     13628     13630     13627     13625     13628     13631
     13628     13631     13634     13635     13628     13631     13634     13636
     13628     13631     13634     13637     13629     13628     13631     13632
     13629     13628     13631     13633     13629     13628     13631     13634
     13630     13628     13631     13632     13630     13628     13631     13633
     13630     13628     13631     13634     13631     13634     13637     13638
     13631     13634     13637     13639     13631     13634     13637     13640
     13632     13631     13634     13635     13632     13631     13634     13636
     13632     13631     13634     13637     13633     13631     13634     13635
     13633     13631     13634     13636     13633     13631     13634     13637
     13634     13637     13640     13641     13634     13637     13640     13642
     13634     13637     13640     13643     13635     13634     13637     13638
     13635     13634     13637     13639     13635     13634     13637     13640
     13636     13634     13637     13638     13636     13634     13637     13639
     13636     13634     13637     13640     13637     13640     13643     13644
     13637     13640     13643     13645     13637     13640     13643     13646
     13638     13637     13640     13641     13638     13637     13640     13642
     13638     13637     13640     13643     13639     13637     13640     13641
     13639     13637     13640     13642     13639     13637     13640     13643
     13641     13640     13643     13644     13641     13640     13643     13645
     13641     13640     13643     13646     13642     13640     13643     13644
     13642     13640     13643     13645     13642     13640     13643     13646
     13647     13651     13653     13654     13647     13651     13653     13655
     13647     13651     13656     13657     13647     13651     13656     13658
     13647     13651     13656     13662     13648     13647     13651     13652
     13648     13647     13651     13653     13648     13647     13651     13656
     13649     13647     13651     13652     13649     13647     13651     13653
     13649     13647     13651     13656     13650     13647     13651     13652
     13650     13647     13651     13653     13650     13647     13651     13656
     13651     13656     13662     13659     13652     13651     13653     13654
     13652     13651     13653     13655     13652     13651     13656     13657
     13652     13651     13656     13658     13652     13651     13656     13662
     13653     13651     13656     13657     13653     13651     13656     13658
     13653     13651     13656     13662     13654     13653     13651     13656
     13655     13653     13651     13656     13656     13662     13659     13660
     13656     13662     13659     13661     13656     13662     13659     13663
     13657     13656     13662     13659     13658     13656     13662     13659
     13659     13663     13664     13665     13659     13663     13664     13666
     13659     13663     13664     13667     13660     13659     13663     13664
     13661     13659     13663     13664     13662     13659     13663     13664
     13663     13664     13667     13668     13663     13664     13667     13669
     13663     13664     13667     13675     13664     13667     13669     13670
     13664     13667     13675     13676     13664     13667     13675     13677
     13664     13667     13675     13678     13665     13664     13667     13668
     13665     13664     13667     13669     13665     13664     13667     13675
     13666     13664     13667     13668     13666     13664     13667     13669
     13666     13664     13667     13675     13667     13669     13670     13671
     13667     13669     13670     13672     13667     13675     13678     13679
     13668     13667     13669     13670     13668     13667     13675     13676
     13668     13667     13675     13677     13668     13667     13675     13678
     13669     13667     13675     13676     13669     13667     13675     13677
     13669     13667     13675     13678     13669     13670     13672     13673
     13669     13670     13672     13674     13669     13670     13672     13684
     13670     13669     13667     13675     13670     13672     13684     13685
     13670     13672     13684     13686     13670     13672     13684     13687
     13671     13670     13672     13673     13671     13670     13672     13674
     13671     13670     13672     13684     13672     13684     13687     13688
     13672     13684     13687     13689     13672     13684     13687     13690
     13673     13672     13684     13685     13673     13672     13684     13686
     13673     13672     13684     13687     13674     13672     13684     13685
     13674     13672     13684     13686     13674     13672     13684     13687
     13675     13678     13679     13680     13675     13678     13679     13681
     13676     13675     13678     13679     13677     13675     13678     13679
     13678     13679     13681     13682     13678     13679     13681     13683
     13678     13679     13681     13731     13679     13681     13731     13732
     13679     13681     13731     13733     13679     13681     13731     13734
     13680     13679     13681     13682     13680     13679     13681     13683
     13680     13679     13681     13731     13681     13731     13734     13735
     13681     13731     13734     13736     13681     13731     13734     13737
     13682     13681     13731     13732     13682     13681     13731     13733
     13682     13681     13731     13734     13683     13681     13731     13732
     13683     13681     13731     13733     13683     13681     13731     13734
     13684     13687     13690     13691     13684     13687     13690     13692
     13684     13687     13690     13693     13685     13684     13687     13688
     13685     13684     13687     13689     13685     13684     13687     13690
     13686     13684     13687     13688     13686     13684     13687     13689
     13686     13684     13687     13690     13687     13690     13693     13694
     13687     13690     13693     13695     13687     13690     13693     13696
     13688     13687     13690     13691     13688     13687     13690     13692
     13688     13687     13690     13693     13689     13687     13690     13691
     13689     13687     13690     13692     13689     13687     13690     13693
     13690     13693     13696     13697     13690     13693     13696     13698
     13690     13693     13696     13699     13691     13690     13693     13694
     13691     13690     13693     13695     13691     13690     13693     13696
     13692     13690     13693     13694     13692     13690     13693     13695
     13692     13690     13693     13696     13693     13696     13699     13700
     13693     13696     13699     13701     13693     13696     13699     13702
     13694     13693     13696     13697     13694     13693     13696     13698
     13694     13693     13696     13699     13695     13693     13696     13697
     13695     13693     13696     13698     13695     13693     13696     13699
     13696     13699     13702     13703     13696     13699     13702     13704
     13697     13696     13699     13700     13697     13696     13699     13701
     13697     13696     13699     13702     13698     13696     13699     13700
     13698     13696     13699     13701     13698     13696     13699     13702
     13699     13702     13704     13705     13699     13702     13704     13706
     13700     13699     13702     13703     13700     13699     13702     13704
     13701     13699     13702     13703     13701     13699     13702     13704
     13702     13704     13706     13707     13702     13704     13706     13708
     13702     13704     13706     13709     13703     13702     13704     13705
     13703     13702     13704     13706     13704     13706     13709     13710
     13704     13706     13709     13711     13704     13706     13709     13712
     13705     13704     13706     13707     13705     13704     13706     13708
     13705     13704     13706     13709     13706     13709     13712     13713
     13706     13709     13712     13714     13706     13709     13712     13715
     13707     13706     13709     13710     13707     13706     13709     13711
     13707     13706     13709     13712     13708     13706     13709     13710
     13708     13706     13709     13711     13708     13706     13709     13712
     13709     13712     13715     13716     13709     13712     13715     13717
     13709     13712     13715     13718     13710     13709     13712     13713
     13710     13709     13712     13714     13710     13709     13712     13715
     13711     13709     13712     13713     13711     13709     13712     13714
     13711     13709     13712     13715     13712     13715     13718     13719
     13712     13715     13718     13720     13712     13715     13718     13721
     13713     13712     13715     13716     13713     13712     13715     13717
     13713     13712     13715     13718     13714     13712     13715     13716
     13714     13712     13715     13717     13714     13712     13715     13718
     13715     13718     13721     13722     13715     13718     13721     13723
     13715     13718     13721     13724     13716     13715     13718     13719
     13716     13715     13718     13720     13716     13715     13718     13721
     13717     13715     13718     13719     13717     13715     13718     13720
     13717     13715     13718     13721     13718     13721     13724     13725
     13718     13721     13724     13726     13718     13721     13724     13727
     13719     13718     13721     13722     13719     13718     13721     13723
     13719     13718     13721     13724     13720     13718     13721     13722
     13720     13718     13721     13723     13720     13718     13721     13724
     13721     13724     13727     13728     13721     13724     13727     13729
     13721     13724     13727     13730     13722     13721     13724     13725
     13722     13721     13724     13726     13722     13721     13724     13727
     13723     13721     13724     13725     13723     13721     13724     13726
     13723     13721     13724     13727     13725     13724     13727     13728
     13725     13724     13727     13729     13725     13724     13727     13730
     13726     13724     13727     13728     13726     13724     13727     13729
     13726     13724     13727     13730     13731     13734     13737     13738
     13731     13734     13737     13739     13731     13734     13737     13740
     13732     13731     13734     13735     13732     13731     13734     13736
     13732     13731     13734     13737     13733     13731     13734     13735
     13733     13731     13734     13736     13733     13731     13734     13737
     13734     13737     13740     13741     13734     13737     13740     13742
     13734     13737     13740     13743     13735     13734     13737     13738
     13735     13734     13737     13739     13735     13734     13737     13740
     13736     13734     13737     13738     13736     13734     13737     13739
     13736     13734     13737     13740     13737     13740     13743     13744
     13737     13740     13743     13745     13737     13740     13743     13746
     13738     13737     13740     13741     13738     13737     13740     13742
     13738     13737     13740     13743     13739     13737     13740     13741
     13739     13737     13740     13742     13739     13737     13740     13743
     13740     13743     13746     13747     13740     13743     13746     13748
     13740     13743     13746     13749     13741     13740     13743     13744
     13741     13740     13743     13745     13741     13740     13743     13746
     13742     13740     13743     13744     13742     13740     13743     13745
     13742     13740     13743     13746     13743     13746     13749     13750
     13743     13746     13749     13751     13743     13746     13749     13752
     13744     13743     13746     13747     13744     13743     13746     13748
     13744     13743     13746     13749     13745     13743     13746     13747
     13745     13743     13746     13748     13745     13743     13746     13749
     13746     13749     13752     13753     13746     13749     13752     13754
     13746     13749     13752     13755     13747     13746     13749     13750
     13747     13746     13749     13751     13747     13746     13749     13752
     13748     13746     13749     13750     13748     13746     13749     13751
     13748     13746     13749     13752     13749     13752     13755     13756
     13749     13752     13755     13757     13749     13752     13755     13758
     13750     13749     13752     13753     13750     13749     13752     13754
     13750     13749     13752     13755     13751     13749     13752     13753
     13751     13749     13752     13754     13751     13749     13752     13755
     13752     13755     13758     13759     13752     13755     13758     13760
     13752     13755     13758     13761     13753     13752     13755     13756
     13753     13752     13755     13757     13753     13752     13755     13758
     13754     13752     13755     13756     13754     13752     13755     13757
     13754     13752     13755     13758     13755     13758     13761     13762
     13755     13758     13761     13763     13755     13758     13761     13764
     13756     13755     13758     13759     13756     13755     13758     13760
     13756     13755     13758     13761     13757     13755     13758     13759
     13757     13755     13758     13760     13757     13755     13758     13761
     13758     13761     13764     13765     13758     13761     13764     13766
     13758     13761     13764     13767     13759     13758     13761     13762
     13759     13758     13761     13763     13759     13758     13761     13764
     13760     13758     13761     13762     13760     13758     13761     13763
     13760     13758     13761     13764     13761     13764     13767     13768
     13761     13764     13767     13769     13761     13764     13767     13770
     13762     13761     13764     13765     13762     13761     13764     13766
     13762     13761     13764     13767     13763     13761     13764     13765
     13763     13761     13764     13766     13763     13761     13764     13767
     13764     13767     13770     13771     13764     13767     13770     13772
     13764     13767     13770     13773     13765     13764     13767     13768
     13765     13764     13767     13769     13765     13764     13767     13770
     13766     13764     13767     13768     13766     13764     13767     13769
     13766     13764     13767     13770     13768     13767     13770     13771
     13768     13767     13770     13772     13768     13767     13770     13773
     13769     13767     13770     13771     13769     13767     13770     13772
     13769     13767     13770     13773     13774     13775     13790     13791
     13774     13775     13790     13792     13774     13775     13790     13796
     13775     13774     13778     13779     13775     13774     13778     13780
     13775     13774     13778     13781     13775     13774     13782     13783
     13775     13774     13782     13784     13775     13774     13782     13785
     13775     13774     13786     13787     13775     13774     13786     13788
     13775     13774     13786     13789     13775     13790     13796     13793
     13776     13775     13774     13778     13776     13775     13774     13782
     13776     13775     13774     13786     13776     13775     13790     13791
     13776     13775     13790     13792     13776     13775     13790     13796
     13777     13775     13774     13778     13777     13775     13774     13782
     13777     13775     13774     13786     13777     13775     13790     13791
     13777     13775     13790     13792     13777     13775     13790     13796
     13778     13774     13775     13790     13778     13774     13782     13783
     13778     13774     13782     13784     13778     13774     13782     13785
     13778     13774     13786     13787     13778     13774     13786     13788
     13778     13774     13786     13789     13779     13778     13774     13782
     13779     13778     13774     13786     13780     13778     13774     13782
     13780     13778     13774     13786     13781     13778     13774     13782
     13781     13778     13774     13786     13782     13774     13775     13790
     13782     13774     13786     13787     13782     13774     13786     13788
     13782     13774     13786     13789     13783     13782     13774     13786
     13784     13782     13774     13786     13785     13782     13774     13786
     13786     13774     13775     13790     13790     13796     13793     13794
     13790     13796     13793     13795     13790     13796     13793     13797
     13791     13790     13796     13793     13792     13790     13796     13793
     13793     13797     13798     13799     13793     13797     13798     13800
     13793     13797     13798     13801     13794     13793     13797     13798
     13795     13793     13797     13798     13796     13793     13797     13798
     13797     13798     13801     13802     13797     13798     13801     13803
     13797     13798     13801     13809     13798     13801     13803     13804
     13798     13801     13809     13810     13798     13801     13809     13811
     13798     13801     13809     13812     13799     13798     13801     13802
     13799     13798     13801     13803     13799     13798     13801     13809
     13800     13798     13801     13802     13800     13798     13801     13803
     13800     13798     13801     13809     13801     13803     13804     13805
     13801     13803     13804     13806     13801     13809     13812     13813
     13802     13801     13803     13804     13802     13801     13809     13810
     13802     13801     13809     13811     13802     13801     13809     13812
     13803     13801     13809     13810     13803     13801     13809     13811
     13803     13801     13809     13812     13803     13804     13806     13807
     13803     13804     13806     13808     13803     13804     13806     13818
     13804     13803     13801     13809     13804     13806     13818     13819
     13804     13806     13818     13820     13804     13806     13818     13821
     13805     13804     13806     13807     13805     13804     13806     13808
     13805     13804     13806     13818     13806     13818     13821     13822
     13806     13818     13821     13823     13806     13818     13821     13824
     13807     13806     13818     13819     13807     13806     13818     13820
     13807     13806     13818     13821     13808     13806     13818     13819
     13808     13806     13818     13820     13808     13806     13818     13821
     13809     13812     13813     13814     13809     13812     13813     13815
     13810     13809     13812     13813     13811     13809     13812     13813
     13812     13813     13815     13816     13812     13813     13815     13817
     13812     13813     13815     13865     13813     13815     13865     13866
     13813     13815     13865     13867     13813     13815     13865     13868
     13814     13813     13815     13816     13814     13813     13815     13817
     13814     13813     13815     13865     13815     13865     13868     13869
     13815     13865     13868     13870     13815     13865     13868     13871
     13816     13815     13865     13866     13816     13815     13865     13867
     13816     13815     13865     13868     13817     13815     13865     13866
     13817     13815     13865     13867     13817     13815     13865     13868
     13818     13821     13824     13825     13818     13821     13824     13826
     13818     13821     13824     13827     13819     13818     13821     13822
     13819     13818     13821     13823     13819     13818     13821     13824
     13820     13818     13821     13822     13820     13818     13821     13823
     13820     13818     13821     13824     13821     13824     13827     13828
     13821     13824     13827     13829     13821     13824     13827     13830
     13822     13821     13824     13825     13822     13821     13824     13826
     13822     13821     13824     13827     13823     13821     13824     13825
     13823     13821     13824     13826     13823     13821     13824     13827
     13824     13827     13830     13831     13824     13827     13830     13832
     13824     13827     13830     13833     13825     13824     13827     13828
     13825     13824     13827     13829     13825     13824     13827     13830
     13826     13824     13827     13828     13826     13824     13827     13829
     13826     13824     13827     13830     13827     13830     13833     13834
     13827     13830     13833     13835     13827     13830     13833     13836
     13828     13827     13830     13831     13828     13827     13830     13832
     13828     13827     13830     13833     13829     13827     13830     13831
     13829     13827     13830     13832     13829     13827     13830     13833
     13830     13833     13836     13837     13830     13833     13836     13838
     13831     13830     13833     13834     13831     13830     13833     13835
     13831     13830     13833     13836     13832     13830     13833     13834
     13832     13830     13833     13835     13832     13830     13833     13836
     13833     13836     13838     13839     13833     13836     13838     13840
     13834     13833     13836     13837     13834     13833     13836     13838
     13835     13833     13836     13837     13835     13833     13836     13838
     13836     13838     13840     13841     13836     13838     13840     13842
     13836     13838     13840     13843     13837     13836     13838     13839
     13837     13836     13838     13840     13838     13840     13843     13844
     13838     13840     13843     13845     13838     13840     13843     13846
     13839     13838     13840     13841     13839     13838     13840     13842
     13839     13838     13840     13843     13840     13843     13846     13847
     13840     13843     13846     13848     13840     13843     13846     13849
     13841     13840     13843     13844     13841     13840     13843     13845
     13841     13840     13843     13846     13842     13840     13843     13844
     13842     13840     13843     13845     13842     13840     13843     13846
     13843     13846     13849     13850     13843     13846     13849     13851
     13843     13846     13849     13852     13844     13843     13846     13847
     13844     13843     13846     13848     13844     13843     13846     13849
     13845     13843     13846     13847     13845     13843     13846     13848
     13845     13843     13846     13849     13846     13849     13852     13853
     13846     13849     13852     13854     13846     13849     13852     13855
     13847     13846     13849     13850     13847     13846     13849     13851
     13847     13846     13849     13852     13848     13846     13849     13850
     13848     13846     13849     13851     13848     13846     13849     13852
     13849     13852     13855     13856     13849     13852     13855     13857
     13849     13852     13855     13858     13850     13849     13852     13853
     13850     13849     13852     13854     13850     13849     13852     13855
     13851     13849     13852     13853     13851     13849     13852     13854
     13851     13849     13852     13855     13852     13855     13858     13859
     13852     13855     13858     13860     13852     13855     13858     13861
     13853     13852     13855     13856     13853     13852     13855     13857
     13853     13852     13855     13858     13854     13852     13855     13856
     13854     13852     13855     13857     13854     13852     13855     13858
     13855     13858     13861     13862     13855     13858     13861     13863
     13855     13858     13861     13864     13856     13855     13858     13859
     13856     13855     13858     13860     13856     13855     13858     13861
     13857     13855     13858     13859     13857     13855     13858     13860
     13857     13855     13858     13861     13859     13858     13861     13862
     13859     13858     13861     13863     13859     13858     13861     13864
     13860     13858     13861     13862     13860     13858     13861     13863
     13860     13858     13861     13864     13865     13868     13871     13872
     13865     13868     13871     13873     13865     13868     13871     13874
     13866     13865     13868     13869     13866     13865     13868     13870
     13866     13865     13868     13871     13867     13865     13868     13869
     13867     13865     13868     13870     13867     13865     13868     13871
     13868     13871     13874     13875     13868     13871     13874     13876
     13868     13871     13874     13877     13869     13868     13871     13872
     13869     13868     13871     13873     13869     13868     13871     13874
     13870     13868     13871     13872     13870     13868     13871     13873
     13870     13868     13871     13874     13871     13874     13877     13878
     13871     13874     13877     13879     13871     13874     13877     13880
     13872     13871     13874     13875     13872     13871     13874     13876
     13872     13871     13874     13877     13873     13871     13874     13875
     13873     13871     13874     13876     13873     13871     13874     13877
     13874     13877     13880     13881     13874     13877     13880     13882
     13874     13877     13880     13883     13875     13874     13877     13878
     13875     13874     13877     13879     13875     13874     13877     13880
     13876     13874     13877     13878     13876     13874     13877     13879
     13876     13874     13877     13880     13877     13880     13883     13884
     13877     13880     13883     13885     13877     13880     13883     13886
     13878     13877     13880     13881     13878     13877     13880     13882
     13878     13877     13880     13883     13879     13877     13880     13881
     13879     13877     13880     13882     13879     13877     13880     13883
     13880     13883     13886     13887     13880     13883     13886     13888
     13880     13883     13886     13889     13881     13880     13883     13884
     13881     13880     13883     13885     13881     13880     13883     13886
     13882     13880     13883     13884     13882     13880     13883     13885
     13882     13880     13883     13886     13883     13886     13889     13890
     13883     13886     13889     13891     13883     13886     13889     13892
     13884     13883     13886     13887     13884     13883     13886     13888
     13884     13883     13886     13889     13885     13883     13886     13887
     13885     13883     13886     13888     13885     13883     13886     13889
     13886     13889     13892     13893     13886     13889     13892     13894
     13886     13889     13892     13895     13887     13886     13889     13890
     13887     13886     13889     13891     13887     13886     13889     13892
     13888     13886     13889     13890     13888     13886     13889     13891
     13888     13886     13889     13892     13889     13892     13895     13896
     13889     13892     13895     13897     13889     13892     13895     13898
     13890     13889     13892     13893     13890     13889     13892     13894
     13890     13889     13892     13895     13891     13889     13892     13893
     13891     13889     13892     13894     13891     13889     13892     13895
     13892     13895     13898     13899     13892     13895     13898     13900
     13892     13895     13898     13901     13893     13892     13895     13896
     13893     13892     13895     13897     13893     13892     13895     13898
     13894     13892     13895     13896     13894     13892     13895     13897
     13894     13892     13895     13898     13895     13898     13901     13902
     13895     13898     13901     13903     13895     13898     13901     13904
     13896     13895     13898     13899     13896     13895     13898     13900
     13896     13895     13898     13901     13897     13895     13898     13899
     13897     13895     13898     13900     13897     13895     13898     13901
     13898     13901     13904     13905     13898     13901     13904     13906
     13898     13901     13904     13907     13899     13898     13901     13902
     13899     13898     13901     13903     13899     13898     13901     13904
     13900     13898     13901     13902     13900     13898     13901     13903
     13900     13898     13901     13904     13902     13901     13904     13905
     13902     13901     13904     13906     13902     13901     13904     13907
     13903     13901     13904     13905     13903     13901     13904     13906
     13903     13901     13904     13907     13908     13909     13924     13925
     13908     13909     13924     13926     13908     13909     13924     13930
     13909     13908     13912     13913     13909     13908     13912     13914
     13909     13908     13912     13915     13909     13908     13916     13917
     13909     13908     13916     13918     13909     13908     13916     13919
     13909     13908     13920     13921     13909     13908     13920     13922
     13909     13908     13920     13923     13909     13924     13930     13927
     13910     13909     13908     13912     13910     13909     13908     13916
     13910     13909     13908     13920     13910     13909     13924     13925
     13910     13909     13924     13926     13910     13909     13924     13930
     13911     13909     13908     13912     13911     13909     13908     13916
     13911     13909     13908     13920     13911     13909     13924     13925
     13911     13909     13924     13926     13911     13909     13924     13930
     13912     13908     13909     13924     13912     13908     13916     13917
     13912     13908     13916     13918     13912     13908     13916     13919
     13912     13908     13920     13921     13912     13908     13920     13922
     13912     13908     13920     13923     13913     13912     13908     13916
     13913     13912     13908     13920     13914     13912     13908     13916
     13914     13912     13908     13920     13915     13912     13908     13916
     13915     13912     13908     13920     13916     13908     13909     13924
     13916     13908     13920     13921     13916     13908     13920     13922
     13916     13908     13920     13923     13917     13916     13908     13920
     13918     13916     13908     13920     13919     13916     13908     13920
     13920     13908     13909     13924     13924     13930     13927     13928
     13924     13930     13927     13929     13924     13930     13927     13931
     13925     13924     13930     13927     13926     13924     13930     13927
     13927     13931     13932     13933     13927     13931     13932     13934
     13927     13931     13932     13935     13928     13927     13931     13932
     13929     13927     13931     13932     13930     13927     13931     13932
     13931     13932     13935     13936     13931     13932     13935     13937
     13931     13932     13935     13943     13932     13935     13937     13938
     13932     13935     13943     13944     13932     13935     13943     13945
     13932     13935     13943     13946     13933     13932     13935     13936
     13933     13932     13935     13937     13933     13932     13935     13943
     13934     13932     13935     13936     13934     13932     13935     13937
     13934     13932     13935     13943     13935     13937     13938     13939
     13935     13937     13938     13940     13935     13943     13946     13947
     13936     13935     13937     13938     13936     13935     13943     13944
     13936     13935     13943     13945     13936     13935     13943     13946
     13937     13935     13943     13944     13937     13935     13943     13945
     13937     13935     13943     13946     13937     13938     13940     13941
     13937     13938     13940     13942     13937     13938     13940     13952
     13938     13937     13935     13943     13938     13940     13952     13953
     13938     13940     13952     13954     13938     13940     13952     13955
     13939     13938     13940     13941     13939     13938     13940     13942
     13939     13938     13940     13952     13940     13952     13955     13956
     13940     13952     13955     13957     13940     13952     13955     13958
     13941     13940     13952     13953     13941     13940     13952     13954
     13941     13940     13952     13955     13942     13940     13952     13953
     13942     13940     13952     13954     13942     13940     13952     13955
     13943     13946     13947     13948     13943     13946     13947     13949
     13944     13943     13946     13947     13945     13943     13946     13947
     13946     13947     13949     13950     13946     13947     13949     13951
     13946     13947     13949     13999     13947     13949     13999     14000
     13947     13949     13999     14001     13947     13949     13999     14002
     13948     13947     13949     13950     13948     13947     13949     13951
     13948     13947     13949     13999     13949     13999     14002     14003
     13949     13999     14002     14004     13949     13999     14002     14005
     13950     13949     13999     14000     13950     13949     13999     14001
     13950     13949     13999     14002     13951     13949     13999     14000
     13951     13949     13999     14001     13951     13949     13999     14002
     13952     13955     13958     13959     13952     13955     13958     13960
     13952     13955     13958     13961     13953     13952     13955     13956
     13953     13952     13955     13957     13953     13952     13955     13958
     13954     13952     13955     13956     13954     13952     13955     13957
     13954     13952     13955     13958     13955     13958     13961     13962
     13955     13958     13961     13963     13955     13958     13961     13964
     13956     13955     13958     13959     13956     13955     13958     13960
     13956     13955     13958     13961     13957     13955     13958     13959
     13957     13955     13958     13960     13957     13955     13958     13961
     13958     13961     13964     13965     13958     13961     13964     13966
     13958     13961     13964     13967     13959     13958     13961     13962
     13959     13958     13961     13963     13959     13958     13961     13964
     13960     13958     13961     13962     13960     13958     13961     13963
     13960     13958     13961     13964     13961     13964     13967     13968
     13961     13964     13967     13969     13961     13964     13967     13970
     13962     13961     13964     13965     13962     13961     13964     13966
     13962     13961     13964     13967     13963     13961     13964     13965
     13963     13961     13964     13966     13963     13961     13964     13967
     13964     13967     13970     13971     13964     13967     13970     13972
     13965     13964     13967     13968     13965     13964     13967     13969
     13965     13964     13967     13970     13966     13964     13967     13968
     13966     13964     13967     13969     13966     13964     13967     13970
     13967     13970     13972     13973     13967     13970     13972     13974
     13968     13967     13970     13971     13968     13967     13970     13972
     13969     13967     13970     13971     13969     13967     13970     13972
     13970     13972     13974     13975     13970     13972     13974     13976
     13970     13972     13974     13977     13971     13970     13972     13973
     13971     13970     13972     13974     13972     13974     13977     13978
     13972     13974     13977     13979     13972     13974     13977     13980
     13973     13972     13974     13975     13973     13972     13974     13976
     13973     13972     13974     13977     13974     13977     13980     13981
     13974     13977     13980     13982     13974     13977     13980     13983
     13975     13974     13977     13978     13975     13974     13977     13979
     13975     13974     13977     13980     13976     13974     13977     13978
     13976     13974     13977     13979     13976     13974     13977     13980
     13977     13980     13983     13984     13977     13980     13983     13985
     13977     13980     13983     13986     13978     13977     13980     13981
     13978     13977     13980     13982     13978     13977     13980     13983
     13979     13977     13980     13981     13979     13977     13980     13982
     13979     13977     13980     13983     13980     13983     13986     13987
     13980     13983     13986     13988     13980     13983     13986     13989
     13981     13980     13983     13984     13981     13980     13983     13985
     13981     13980     13983     13986     13982     13980     13983     13984
     13982     13980     13983     13985     13982     13980     13983     13986
     13983     13986     13989     13990     13983     13986     13989     13991
     13983     13986     13989     13992     13984     13983     13986     13987
     13984     13983     13986     13988     13984     13983     13986     13989
     13985     13983     13986     13987     13985     13983     13986     13988
     13985     13983     13986     13989     13986     13989     13992     13993
     13986     13989     13992     13994     13986     13989     13992     13995
     13987     13986     13989     13990     13987     13986     13989     13991
     13987     13986     13989     13992     13988     13986     13989     13990
     13988     13986     13989     13991     13988     13986     13989     13992
     13989     13992     13995     13996     13989     13992     13995     13997
     13989     13992     13995     13998     13990     13989     13992     13993
     13990     13989     13992     13994     13990     13989     13992     13995
     13991     13989     13992     13993     13991     13989     13992     13994
     13991     13989     13992     13995     13993     13992     13995     13996
     13993     13992     13995     13997     13993     13992     13995     13998
     13994     13992     13995     13996     13994     13992     13995     13997
     13994     13992     13995     13998     13999     14002     14005     14006
     13999     14002     14005     14007     13999     14002     14005     14008
     14000     13999     14002     14003     14000     13999     14002     14004
     14000     13999     14002     14005     14001     13999     14002     14003
     14001     13999     14002     14004     14001     13999     14002     14005
     14002     14005     14008     14009     14002     14005     14008     14010
     14002     14005     14008     14011     14003     14002     14005     14006
     14003     14002     14005     14007     14003     14002     14005     14008
     14004     14002     14005     14006     14004     14002     14005     14007
     14004     14002     14005     14008     14005     14008     14011     14012
     14005     14008     14011     14013     14005     14008     14011     14014
     14006     14005     14008     14009     14006     14005     14008     14010
     14006     14005     14008     14011     14007     14005     14008     14009
     14007     14005     14008     14010     14007     14005     14008     14011
     14008     14011     14014     14015     14008     14011     14014     14016
     14008     14011     14014     14017     14009     14008     14011     14012
     14009     14008     14011     14013     14009     14008     14011     14014
     14010     14008     14011     14012     14010     14008     14011     14013
     14010     14008     14011     14014     14011     14014     14017     14018
     14011     14014     14017     14019     14011     14014     14017     14020
     14012     14011     14014     14015     14012     14011     14014     14016
     14012     14011     14014     14017     14013     14011     14014     14015
     14013     14011     14014     14016     14013     14011     14014     14017
     14014     14017     14020     14021     14014     14017     14020     14022
     14014     14017     14020     14023     14015     14014     14017     14018
     14015     14014     14017     14019     14015     14014     14017     14020
     14016     14014     14017     14018     14016     14014     14017     14019
     14016     14014     14017     14020     14017     14020     14023     14024
     14017     14020     14023     14025     14017     14020     14023     14026
     14018     14017     14020     14021     14018     14017     14020     14022
     14018     14017     14020     14023     14019     14017     14020     14021
     14019     14017     14020     14022     14019     14017     14020     14023
     14020     14023     14026     14027     14020     14023     14026     14028
     14020     14023     14026     14029     14021     14020     14023     14024
     14021     14020     14023     14025     14021     14020     14023     14026
     14022     14020     14023     14024     14022     14020     14023     14025
     14022     14020     14023     14026     14023     14026     14029     14030
     14023     14026     14029     14031     14023     14026     14029     14032
     14024     14023     14026     14027     14024     14023     14026     14028
     14024     14023     14026     14029     14025     14023     14026     14027
     14025     14023     14026     14028     14025     14023     14026     14029
     14026     14029     14032     14033     14026     14029     14032     14034
     14026     14029     14032     14035     14027     14026     14029     14030
     14027     14026     14029     14031     14027     14026     14029     14032
     14028     14026     14029     14030     14028     14026     14029     14031
     14028     14026     14029     14032     14029     14032     14035     14036
     14029     14032     14035     14037     14029     14032     14035     14038
     14030     14029     14032     14033     14030     14029     14032     14034
     14030     14029     14032     14035     14031     14029     14032     14033
     14031     14029     14032     14034     14031     14029     14032     14035
     14032     14035     14038     14039     14032     14035     14038     14040
     14032     14035     14038     14041     14033     14032     14035     14036
     14033     14032     14035     14037     14033     14032     14035     14038
     14034     14032     14035     14036     14034     14032     14035     14037
     14034     14032     14035     14038     14036     14035     14038     14039
     14036     14035     14038     14040     14036     14035     14038     14041
     14037     14035     14038     14039     14037     14035     14038     14040
     14037     14035     14038     14041     14042     14046     14048     14049
     14042     14046     14048     14050     14042     14046     14051     14052
     14042     14046     14051     14053     14042     14046     14051     14057
     14043     14042     14046     14047     14043     14042     14046     14048
     14043     14042     14046     14051     14044     14042     14046     14047
     14044     14042     14046     14048     14044     14042     14046     14051
     14045     14042     14046     14047     14045     14042     14046     14048
     14045     14042     14046     14051     14046     14051     14057     14054
     14047     14046     14048     14049     14047     14046     14048     14050
     14047     14046     14051     14052     14047     14046     14051     14053
     14047     14046     14051     14057     14048     14046     14051     14052
     14048     14046     14051     14053     14048     14046     14051     14057
     14049     14048     14046     14051     14050     14048     14046     14051
     14051     14057     14054     14055     14051     14057     14054     14056
     14051     14057     14054     14058     14052     14051     14057     14054
     14053     14051     14057     14054     14054     14058     14059     14060
     14054     14058     14059     14061     14054     14058     14059     14062
     14055     14054     14058     14059     14056     14054     14058     14059
     14057     14054     14058     14059     14058     14059     14062     14063
     14058     14059     14062     14064     14058     14059     14062     14070
     14059     14062     14064     14065     14059     14062     14070     14071
     14059     14062     14070     14072     14059     14062     14070     14073
     14060     14059     14062     14063     14060     14059     14062     14064
     14060     14059     14062     14070     14061     14059     14062     14063
     14061     14059     14062     14064     14061     14059     14062     14070
     14062     14064     14065     14066     14062     14064     14065     14067
     14062     14070     14073     14074     14063     14062     14064     14065
     14063     14062     14070     14071     14063     14062     14070     14072
     14063     14062     14070     14073     14064     14062     14070     14071
     14064     14062     14070     14072     14064     14062     14070     14073
     14064     14065     14067     14068     14064     14065     14067     14069
     14064     14065     14067     14079     14065     14064     14062     14070
     14065     14067     14079     14080     14065     14067     14079     14081
     14065     14067     14079     14082     14066     14065     14067     14068
     14066     14065     14067     14069     14066     14065     14067     14079
     14067     14079     14082     14083     14067     14079     14082     14084
     14067     14079     14082     14085     14068     14067     14079     14080
     14068     14067     14079     14081     14068     14067     14079     14082
     14069     14067     14079     14080     14069     14067     14079     14081
     14069     14067     14079     14082     14070     14073     14074     14075
     14070     14073     14074     14076     14071     14070     14073     14074
     14072     14070     14073     14074     14073     14074     14076     14077
     14073     14074     14076     14078     14073     14074     14076     14126
     14074     14076     14126     14127     14074     14076     14126     14128
     14074     14076     14126     14129     14075     14074     14076     14077
     14075     14074     14076     14078     14075     14074     14076     14126
     14076     14126     14129     14130     14076     14126     14129     14131
     14076     14126     14129     14132     14077     14076     14126     14127
     14077     14076     14126     14128     14077     14076     14126     14129
     14078     14076     14126     14127     14078     14076     14126     14128
     14078     14076     14126     14129     14079     14082     14085     14086
     14079     14082     14085     14087     14079     14082     14085     14088
     14080     14079     14082     14083     14080     14079     14082     14084
     14080     14079     14082     14085     14081     14079     14082     14083
     14081     14079     14082     14084     14081     14079     14082     14085
     14082     14085     14088     14089     14082     14085     14088     14090
     14082     14085     14088     14091     14083     14082     14085     14086
     14083     14082     14085     14087     14083     14082     14085     14088
     14084     14082     14085     14086     14084     14082     14085     14087
     14084     14082     14085     14088     14085     14088     14091     14092
     14085     14088     14091     14093     14085     14088     14091     14094
     14086     14085     14088     14089     14086     14085     14088     14090
     14086     14085     14088     14091     14087     14085     14088     14089
     14087     14085     14088     14090     14087     14085     14088     14091
     14088     14091     14094     14095     14088     14091     14094     14096
     14088     14091     14094     14097     14089     14088     14091     14092
     14089     14088     14091     14093     14089     14088     14091     14094
     14090     14088     14091     14092     14090     14088     14091     14093
     14090     14088     14091     14094     14091     14094     14097     14098
     14091     14094     14097     14099     14092     14091     14094     14095
     14092     14091     14094     14096     14092     14091     14094     14097
     14093     14091     14094     14095     14093     14091     14094     14096
     14093     14091     14094     14097     14094     14097     14099     14100
     14094     14097     14099     14101     14095     14094     14097     14098
     14095     14094     14097     14099     14096     14094     14097     14098
     14096     14094     14097     14099     14097     14099     14101     14102
     14097     14099     14101     14103     14097     14099     14101     14104
     14098     14097     14099     14100     14098     14097     14099     14101
     14099     14101     14104     14105     14099     14101     14104     14106
     14099     14101     14104     14107     14100     14099     14101     14102
     14100     14099     14101     14103     14100     14099     14101     14104
     14101     14104     14107     14108     14101     14104     14107     14109
     14101     14104     14107     14110     14102     14101     14104     14105
     14102     14101     14104     14106     14102     14101     14104     14107
     14103     14101     14104     14105     14103     14101     14104     14106
     14103     14101     14104     14107     14104     14107     14110     14111
     14104     14107     14110     14112     14104     14107     14110     14113
     14105     14104     14107     14108     14105     14104     14107     14109
     14105     14104     14107     14110     14106     14104     14107     14108
     14106     14104     14107     14109     14106     14104     14107     14110
     14107     14110     14113     14114     14107     14110     14113     14115
     14107     14110     14113     14116     14108     14107     14110     14111
     14108     14107     14110     14112     14108     14107     14110     14113
     14109     14107     14110     14111     14109     14107     14110     14112
     14109     14107     14110     14113     14110     14113     14116     14117
     14110     14113     14116     14118     14110     14113     14116     14119
     14111     14110     14113     14114     14111     14110     14113     14115
     14111     14110     14113     14116     14112     14110     14113     14114
     14112     14110     14113     14115     14112     14110     14113     14116
     14113     14116     14119     14120     14113     14116     14119     14121
     14113     14116     14119     14122     14114     14113     14116     14117
     14114     14113     14116     14118     14114     14113     14116     14119
     14115     14113     14116     14117     14115     14113     14116     14118
     14115     14113     14116     14119     14116     14119     14122     14123
     14116     14119     14122     14124     14116     14119     14122     14125
     14117     14116     14119     14120     14117     14116     14119     14121
     14117     14116     14119     14122     14118     14116     14119     14120
     14118     14116     14119     14121     14118     14116     14119     14122
     14120     14119     14122     14123     14120     14119     14122     14124
     14120     14119     14122     14125     14121     14119     14122     14123
     14121     14119     14122     14124     14121     14119     14122     14125
     14126     14129     14132     14133     14126     14129     14132     14134
     14126     14129     14132     14135     14127     14126     14129     14130
     14127     14126     14129     14131     14127     14126     14129     14132
     14128     14126     14129     14130     14128     14126     14129     14131
     14128     14126     14129     14132     14129     14132     14135     14136
     14129     14132     14135     14137     14129     14132     14135     14138
     14130     14129     14132     14133     14130     14129     14132     14134
     14130     14129     14132     14135     14131     14129     14132     14133
     14131     14129     14132     14134     14131     14129     14132     14135
     14132     14135     14138     14139     14132     14135     14138     14140
     14132     14135     14138     14141     14133     14132     14135     14136
     14133     14132     14135     14137     14133     14132     14135     14138
     14134     14132     14135     14136     14134     14132     14135     14137
     14134     14132     14135     14138     14135     14138     14141     14142
     14135     14138     14141     14143     14135     14138     14141     14144
     14136     14135     14138     14139     14136     14135     14138     14140
     14136     14135     14138     14141     14137     14135     14138     14139
     14137     14135     14138     14140     14137     14135     14138     14141
     14138     14141     14144     14145     14138     14141     14144     14146
     14138     14141     14144     14147     14139     14138     14141     14142
     14139     14138     14141     14143     14139     14138     14141     14144
     14140     14138     14141     14142     14140     14138     14141     14143
     14140     14138     14141     14144     14141     14144     14147     14148
     14141     14144     14147     14149     14141     14144     14147     14150
     14142     14141     14144     14145     14142     14141     14144     14146
     14142     14141     14144     14147     14143     14141     14144     14145
     14143     14141     14144     14146     14143     14141     14144     14147
     14144     14147     14150     14151     14144     14147     14150     14152
     14144     14147     14150     14153     14145     14144     14147     14148
     14145     14144     14147     14149     14145     14144     14147     14150
     14146     14144     14147     14148     14146     14144     14147     14149
     14146     14144     14147     14150     14147     14150     14153     14154
     14147     14150     14153     14155     14147     14150     14153     14156
     14148     14147     14150     14151     14148     14147     14150     14152
     14148     14147     14150     14153     14149     14147     14150     14151
     14149     14147     14150     14152     14149     14147     14150     14153
     14150     14153     14156     14157     14150     14153     14156     14158
     14150     14153     14156     14159     14151     14150     14153     14154
     14151     14150     14153     14155     14151     14150     14153     14156
     14152     14150     14153     14154     14152     14150     14153     14155
     14152     14150     14153     14156     14153     14156     14159     14160
     14153     14156     14159     14161     14153     14156     14159     14162
     14154     14153     14156     14157     14154     14153     14156     14158
     14154     14153     14156     14159     14155     14153     14156     14157
     14155     14153     14156     14158     14155     14153     14156     14159
     14156     14159     14162     14163     14156     14159     14162     14164
     14156     14159     14162     14165     14157     14156     14159     14160
     14157     14156     14159     14161     14157     14156     14159     14162
     14158     14156     14159     14160     14158     14156     14159     14161
     14158     14156     14159     14162     14159     14162     14165     14166
     14159     14162     14165     14167     14159     14162     14165     14168
     14160     14159     14162     14163     14160     14159     14162     14164
     14160     14159     14162     14165     14161     14159     14162     14163
     14161     14159     14162     14164     14161     14159     14162     14165
     14163     14162     14165     14166     14163     14162     14165     14167
     14163     14162     14165     14168     14164     14162     14165     14166
     14164     14162     14165     14167     14164     14162     14165     14168
     14169     14170     14185     14186     14169     14170     14185     14187
     14169     14170     14185     14191     14170     14169     14173     14174
     14170     14169     14173     14175     14170     14169     14173     14176
     14170     14169     14177     14178     14170     14169     14177     14179
     14170     14169     14177     14180     14170     14169     14181     14182
     14170     14169     14181     14183     14170     14169     14181     14184
     14170     14185     14191     14188     14171     14170     14169     14173
     14171     14170     14169     14177     14171     14170     14169     14181
     14171     14170     14185     14186     14171     14170     14185     14187
     14171     14170     14185     14191     14172     14170     14169     14173
     14172     14170     14169     14177     14172     14170     14169     14181
     14172     14170     14185     14186     14172     14170     14185     14187
     14172     14170     14185     14191     14173     14169     14170     14185
     14173     14169     14177     14178     14173     14169     14177     14179
     14173     14169     14177     14180     14173     14169     14181     14182
     14173     14169     14181     14183     14173     14169     14181     14184
     14174     14173     14169     14177     14174     14173     14169     14181
     14175     14173     14169     14177     14175     14173     14169     14181
     14176     14173     14169     14177     14176     14173     14169     14181
     14177     14169     14170     14185     14177     14169     14181     14182
     14177     14169     14181     14183     14177     14169     14181     14184
     14178     14177     14169     14181     14179     14177     14169     14181
     14180     14177     14169     14181     14181     14169     14170     14185
     14185     14191     14188     14189     14185     14191     14188     14190
     14185     14191     14188     14192     14186     14185     14191     14188
     14187     14185     14191     14188     14188     14192     14193     14194
     14188     14192     14193     14195     14188     14192     14193     14196
     14189     14188     14192     14193     14190     14188     14192     14193
     14191     14188     14192     14193     14192     14193     14196     14197
     14192     14193     14196     14198     14192     14193     14196     14204
     14193     14196     14198     14199     14193     14196     14204     14205
     14193     14196     14204     14206     14193     14196     14204     14207
     14194     14193     14196     14197     14194     14193     14196     14198
     14194     14193     14196     14204     14195     14193     14196     14197
     14195     14193     14196     14198     14195     14193     14196     14204
     14196     14198     14199     14200     14196     14198     14199     14201
     14196     14204     14207     14208     14197     14196     14198     14199
     14197     14196     14204     14205     14197     14196     14204     14206
     14197     14196     14204     14207     14198     14196     14204     14205
     14198     14196     14204     14206     14198     14196     14204     14207
     14198     14199     14201     14202     14198     14199     14201     14203
     14198     14199     14201     14213     14199     14198     14196     14204
     14199     14201     14213     14214     14199     14201     14213     14215
     14199     14201     14213     14216     14200     14199     14201     14202
     14200     14199     14201     14203     14200     14199     14201     14213
     14201     14213     14216     14217     14201     14213     14216     14218
     14201     14213     14216     14219     14202     14201     14213     14214
     14202     14201     14213     14215     14202     14201     14213     14216
     14203     14201     14213     14214     14203     14201     14213     14215
     14203     14201     14213     14216     14204     14207     14208     14209
     14204     14207     14208     14210     14205     14204     14207     14208
     14206     14204     14207     14208     14207     14208     14210     14211
     14207     14208     14210     14212     14207     14208     14210     14260
     14208     14210     14260     14261     14208     14210     14260     14262
     14208     14210     14260     14263     14209     14208     14210     14211
     14209     14208     14210     14212     14209     14208     14210     14260
     14210     14260     14263     14264     14210     14260     14263     14265
     14210     14260     14263     14266     14211     14210     14260     14261
     14211     14210     14260     14262     14211     14210     14260     14263
     14212     14210     14260     14261     14212     14210     14260     14262
     14212     14210     14260     14263     14213     14216     14219     14220
     14213     14216     14219     14221     14213     14216     14219     14222
     14214     14213     14216     14217     14214     14213     14216     14218
     14214     14213     14216     14219     14215     14213     14216     14217
     14215     14213     14216     14218     14215     14213     14216     14219
     14216     14219     14222     14223     14216     14219     14222     14224
     14216     14219     14222     14225     14217     14216     14219     14220
     14217     14216     14219     14221     14217     14216     14219     14222
     14218     14216     14219     14220     14218     14216     14219     14221
     14218     14216     14219     14222     14219     14222     14225     14226
     14219     14222     14225     14227     14219     14222     14225     14228
     14220     14219     14222     14223     14220     14219     14222     14224
     14220     14219     14222     14225     14221     14219     14222     14223
     14221     14219     14222     14224     14221     14219     14222     14225
     14222     14225     14228     14229     14222     14225     14228     14230
     14222     14225     14228     14231     14223     14222     14225     14226
     14223     14222     14225     14227     14223     14222     14225     14228
     14224     14222     14225     14226     14224     14222     14225     14227
     14224     14222     14225     14228     14225     14228     14231     14232
     14225     14228     14231     14233     14226     14225     14228     14229
     14226     14225     14228     14230     14226     14225     14228     14231
     14227     14225     14228     14229     14227     14225     14228     14230
     14227     14225     14228     14231     14228     14231     14233     14234
     14228     14231     14233     14235     14229     14228     14231     14232
     14229     14228     14231     14233     14230     14228     14231     14232
     14230     14228     14231     14233     14231     14233     14235     14236
     14231     14233     14235     14237     14231     14233     14235     14238
     14232     14231     14233     14234     14232     14231     14233     14235
     14233     14235     14238     14239     14233     14235     14238     14240
     14233     14235     14238     14241     14234     14233     14235     14236
     14234     14233     14235     14237     14234     14233     14235     14238
     14235     14238     14241     14242     14235     14238     14241     14243
     14235     14238     14241     14244     14236     14235     14238     14239
     14236     14235     14238     14240     14236     14235     14238     14241
     14237     14235     14238     14239     14237     14235     14238     14240
     14237     14235     14238     14241     14238     14241     14244     14245
     14238     14241     14244     14246     14238     14241     14244     14247
     14239     14238     14241     14242     14239     14238     14241     14243
     14239     14238     14241     14244     14240     14238     14241     14242
     14240     14238     14241     14243     14240     14238     14241     14244
     14241     14244     14247     14248     14241     14244     14247     14249
     14241     14244     14247     14250     14242     14241     14244     14245
     14242     14241     14244     14246     14242     14241     14244     14247
     14243     14241     14244     14245     14243     14241     14244     14246
     14243     14241     14244     14247     14244     14247     14250     14251
     14244     14247     14250     14252     14244     14247     14250     14253
     14245     14244     14247     14248     14245     14244     14247     14249
     14245     14244     14247     14250     14246     14244     14247     14248
     14246     14244     14247     14249     14246     14244     14247     14250
     14247     14250     14253     14254     14247     14250     14253     14255
     14247     14250     14253     14256     14248     14247     14250     14251
     14248     14247     14250     14252     14248     14247     14250     14253
     14249     14247     14250     14251     14249     14247     14250     14252
     14249     14247     14250     14253     14250     14253     14256     14257
     14250     14253     14256     14258     14250     14253     14256     14259
     14251     14250     14253     14254     14251     14250     14253     14255
     14251     14250     14253     14256     14252     14250     14253     14254
     14252     14250     14253     14255     14252     14250     14253     14256
     14254     14253     14256     14257     14254     14253     14256     14258
     14254     14253     14256     14259     14255     14253     14256     14257
     14255     14253     14256     14258     14255     14253     14256     14259
     14260     14263     14266     14267     14260     14263     14266     14268
     14260     14263     14266     14269     14261     14260     14263     14264
     14261     14260     14263     14265     14261     14260     14263     14266
     14262     14260     14263     14264     14262     14260     14263     14265
     14262     14260     14263     14266     14263     14266     14269     14270
     14263     14266     14269     14271     14263     14266     14269     14272
     14264     14263     14266     14267     14264     14263     14266     14268
     14264     14263     14266     14269     14265     14263     14266     14267
     14265     14263     14266     14268     14265     14263     14266     14269
     14266     14269     14272     14273     14266     14269     14272     14274
     14266     14269     14272     14275     14267     14266     14269     14270
     14267     14266     14269     14271     14267     14266     14269     14272
     14268     14266     14269     14270     14268     14266     14269     14271
     14268     14266     14269     14272     14269     14272     14275     14276
     14269     14272     14275     14277     14269     14272     14275     14278
     14270     14269     14272     14273     14270     14269     14272     14274
     14270     14269     14272     14275     14271     14269     14272     14273
     14271     14269     14272     14274     14271     14269     14272     14275
     14272     14275     14278     14279     14272     14275     14278     14280
     14272     14275     14278     14281     14273     14272     14275     14276
     14273     14272     14275     14277     14273     14272     14275     14278
     14274     14272     14275     14276     14274     14272     14275     14277
     14274     14272     14275     14278     14275     14278     14281     14282
     14275     14278     14281     14283     14275     14278     14281     14284
     14276     14275     14278     14279     14276     14275     14278     14280
     14276     14275     14278     14281     14277     14275     14278     14279
     14277     14275     14278     14280     14277     14275     14278     14281
     14278     14281     14284     14285     14278     14281     14284     14286
     14278     14281     14284     14287     14279     14278     14281     14282
     14279     14278     14281     14283     14279     14278     14281     14284
     14280     14278     14281     14282     14280     14278     14281     14283
     14280     14278     14281     14284     14281     14284     14287     14288
     14281     14284     14287     14289     14281     14284     14287     14290
     14282     14281     14284     14285     14282     14281     14284     14286
     14282     14281     14284     14287     14283     14281     14284     14285
     14283     14281     14284     14286     14283     14281     14284     14287
     14284     14287     14290     14291     14284     14287     14290     14292
     14284     14287     14290     14293     14285     14284     14287     14288
     14285     14284     14287     14289     14285     14284     14287     14290
     14286     14284     14287     14288     14286     14284     14287     14289
     14286     14284     14287     14290     14287     14290     14293     14294
     14287     14290     14293     14295     14287     14290     14293     14296
     14288     14287     14290     14291     14288     14287     14290     14292
     14288     14287     14290     14293     14289     14287     14290     14291
     14289     14287     14290     14292     14289     14287     14290     14293
     14290     14293     14296     14297     14290     14293     14296     14298
     14290     14293     14296     14299     14291     14290     14293     14294
     14291     14290     14293     14295     14291     14290     14293     14296
     14292     14290     14293     14294     14292     14290     14293     14295
     14292     14290     14293     14296     14293     14296     14299     14300
     14293     14296     14299     14301     14293     14296     14299     14302
     14294     14293     14296     14297     14294     14293     14296     14298
     14294     14293     14296     14299     14295     14293     14296     14297
     14295     14293     14296     14298     14295     14293     14296     14299
     14297     14296     14299     14300     14297     14296     14299     14301
     14297     14296     14299     14302     14298     14296     14299     14300
     14298     14296     14299     14301     14298     14296     14299     14302
     14303     14304     14319     14320     14303     14304     14319     14321
     14303     14304     14319     14325     14304     14303     14307     14308
     14304     14303     14307     14309     14304     14303     14307     14310
     14304     14303     14311     14312     14304     14303     14311     14313
     14304     14303     14311     14314     14304     14303     14315     14316
     14304     14303     14315     14317     14304     14303     14315     14318
     14304     14319     14325     14322     14305     14304     14303     14307
     14305     14304     14303     14311     14305     14304     14303     14315
     14305     14304     14319     14320     14305     14304     14319     14321
     14305     14304     14319     14325     14306     14304     14303     14307
     14306     14304     14303     14311     14306     14304     14303     14315
     14306     14304     14319     14320     14306     14304     14319     14321
     14306     14304     14319     14325     14307     14303     14304     14319
     14307     14303     14311     14312     14307     14303     14311     14313
     14307     14303     14311     14314     14307     14303     14315     14316
     14307     14303     14315     14317     14307     14303     14315     14318
     14308     14307     14303     14311     14308     14307     14303     14315
     14309     14307     14303     14311     14309     14307     14303     14315
     14310     14307     14303     14311     14310     14307     14303     14315
     14311     14303     14304     14319     14311     14303     14315     14316
     14311     14303     14315     14317     14311     14303     14315     14318
     14312     14311     14303     14315     14313     14311     14303     14315
     14314     14311     14303     14315     14315     14303     14304     14319
     14319     14325     14322     14323     14319     14325     14322     14324
     14319     14325     14322     14326     14320     14319     14325     14322
     14321     14319     14325     14322     14322     14326     14327     14328
     14322     14326     14327     14329     14322     14326     14327     14330
     14323     14322     14326     14327     14324     14322     14326     14327
     14325     14322     14326     14327     14326     14327     14330     14331
     14326     14327     14330     14332     14326     14327     14330     14338
     14327     14330     14332     14333     14327     14330     14338     14339
     14327     14330     14338     14340     14327     14330     14338     14341
     14328     14327     14330     14331     14328     14327     14330     14332
     14328     14327     14330     14338     14329     14327     14330     14331
     14329     14327     14330     14332     14329     14327     14330     14338
     14330     14332     14333     14334     14330     14332     14333     14335
     14330     14338     14341     14342     14331     14330     14332     14333
     14331     14330     14338     14339     14331     14330     14338     14340
     14331     14330     14338     14341     14332     14330     14338     14339
     14332     14330     14338     14340     14332     14330     14338     14341
     14332     14333     14335     14336     14332     14333     14335     14337
     14332     14333     14335     14347     14333     14332     14330     14338
     14333     14335     14347     14348     14333     14335     14347     14349
     14333     14335     14347     14350     14334     14333     14335     14336
     14334     14333     14335     14337     14334     14333     14335     14347
     14335     14347     14350     14351     14335     14347     14350     14352
     14335     14347     14350     14353     14336     14335     14347     14348
     14336     14335     14347     14349     14336     14335     14347     14350
     14337     14335     14347     14348     14337     14335     14347     14349
     14337     14335     14347     14350     14338     14341     14342     14343
     14338     14341     14342     14344     14339     14338     14341     14342
     14340     14338     14341     14342     14341     14342     14344     14345
     14341     14342     14344     14346     14341     14342     14344     14394
     14342     14344     14394     14395     14342     14344     14394     14396
     14342     14344     14394     14397     14343     14342     14344     14345
     14343     14342     14344     14346     14343     14342     14344     14394
     14344     14394     14397     14398     14344     14394     14397     14399
     14344     14394     14397     14400     14345     14344     14394     14395
     14345     14344     14394     14396     14345     14344     14394     14397
     14346     14344     14394     14395     14346     14344     14394     14396
     14346     14344     14394     14397     14347     14350     14353     14354
     14347     14350     14353     14355     14347     14350     14353     14356
     14348     14347     14350     14351     14348     14347     14350     14352
     14348     14347     14350     14353     14349     14347     14350     14351
     14349     14347     14350     14352     14349     14347     14350     14353
     14350     14353     14356     14357     14350     14353     14356     14358
     14350     14353     14356     14359     14351     14350     14353     14354
     14351     14350     14353     14355     14351     14350     14353     14356
     14352     14350     14353     14354     14352     14350     14353     14355
     14352     14350     14353     14356     14353     14356     14359     14360
     14353     14356     14359     14361     14353     14356     14359     14362
     14354     14353     14356     14357     14354     14353     14356     14358
     14354     14353     14356     14359     14355     14353     14356     14357
     14355     14353     14356     14358     14355     14353     14356     14359
     14356     14359     14362     14363     14356     14359     14362     14364
     14356     14359     14362     14365     14357     14356     14359     14360
     14357     14356     14359     14361     14357     14356     14359     14362
     14358     14356     14359     14360     14358     14356     14359     14361
     14358     14356     14359     14362     14359     14362     14365     14366
     14359     14362     14365     14367     14360     14359     14362     14363
     14360     14359     14362     14364     14360     14359     14362     14365
     14361     14359     14362     14363     14361     14359     14362     14364
     14361     14359     14362     14365     14362     14365     14367     14368
     14362     14365     14367     14369     14363     14362     14365     14366
     14363     14362     14365     14367     14364     14362     14365     14366
     14364     14362     14365     14367     14365     14367     14369     14370
     14365     14367     14369     14371     14365     14367     14369     14372
     14366     14365     14367     14368     14366     14365     14367     14369
     14367     14369     14372     14373     14367     14369     14372     14374
     14367     14369     14372     14375     14368     14367     14369     14370
     14368     14367     14369     14371     14368     14367     14369     14372
     14369     14372     14375     14376     14369     14372     14375     14377
     14369     14372     14375     14378     14370     14369     14372     14373
     14370     14369     14372     14374     14370     14369     14372     14375
     14371     14369     14372     14373     14371     14369     14372     14374
     14371     14369     14372     14375     14372     14375     14378     14379
     14372     14375     14378     14380     14372     14375     14378     14381
     14373     14372     14375     14376     14373     14372     14375     14377
     14373     14372     14375     14378     14374     14372     14375     14376
     14374     14372     14375     14377     14374     14372     14375     14378
     14375     14378     14381     14382     14375     14378     14381     14383
     14375     14378     14381     14384     14376     14375     14378     14379
     14376     14375     14378     14380     14376     14375     14378     14381
     14377     14375     14378     14379     14377     14375     14378     14380
     14377     14375     14378     14381     14378     14381     14384     14385
     14378     14381     14384     14386     14378     14381     14384     14387
     14379     14378     14381     14382     14379     14378     14381     14383
     14379     14378     14381     14384     14380     14378     14381     14382
     14380     14378     14381     14383     14380     14378     14381     14384
     14381     14384     14387     14388     14381     14384     14387     14389
     14381     14384     14387     14390     14382     14381     14384     14385
     14382     14381     14384     14386     14382     14381     14384     14387
     14383     14381     14384     14385     14383     14381     14384     14386
     14383     14381     14384     14387     14384     14387     14390     14391
     14384     14387     14390     14392     14384     14387     14390     14393
     14385     14384     14387     14388     14385     14384     14387     14389
     14385     14384     14387     14390     14386     14384     14387     14388
     14386     14384     14387     14389     14386     14384     14387     14390
     14388     14387     14390     14391     14388     14387     14390     14392
     14388     14387     14390     14393     14389     14387     14390     14391
     14389     14387     14390     14392     14389     14387     14390     14393
     14394     14397     14400     14401     14394     14397     14400     14402
     14394     14397     14400     14403     14395     14394     14397     14398
     14395     14394     14397     14399     14395     14394     14397     14400
     14396     14394     14397     14398     14396     14394     14397     14399
     14396     14394     14397     14400     14397     14400     14403     14404
     14397     14400     14403     14405     14397     14400     14403     14406
     14398     14397     14400     14401     14398     14397     14400     14402
     14398     14397     14400     14403     14399     14397     14400     14401
     14399     14397     14400     14402     14399     14397     14400     14403
     14400     14403     14406     14407     14400     14403     14406     14408
     14400     14403     14406     14409     14401     14400     14403     14404
     14401     14400     14403     14405     14401     14400     14403     14406
     14402     14400     14403     14404     14402     14400     14403     14405
     14402     14400     14403     14406     14403     14406     14409     14410
     14403     14406     14409     14411     14403     14406     14409     14412
     14404     14403     14406     14407     14404     14403     14406     14408
     14404     14403     14406     14409     14405     14403     14406     14407
     14405     14403     14406     14408     14405     14403     14406     14409
     14406     14409     14412     14413     14406     14409     14412     14414
     14406     14409     14412     14415     14407     14406     14409     14410
     14407     14406     14409     14411     14407     14406     14409     14412
     14408     14406     14409     14410     14408     14406     14409     14411
     14408     14406     14409     14412     14409     14412     14415     14416
     14409     14412     14415     14417     14409     14412     14415     14418
     14410     14409     14412     14413     14410     14409     14412     14414
     14410     14409     14412     14415     14411     14409     14412     14413
     14411     14409     14412     14414     14411     14409     14412     14415
     14412     14415     14418     14419     14412     14415     14418     14420
     14412     14415     14418     14421     14413     14412     14415     14416
     14413     14412     14415     14417     14413     14412     14415     14418
     14414     14412     14415     14416     14414     14412     14415     14417
     14414     14412     14415     14418     14415     14418     14421     14422
     14415     14418     14421     14423     14415     14418     14421     14424
     14416     14415     14418     14419     14416     14415     14418     14420
     14416     14415     14418     14421     14417     14415     14418     14419
     14417     14415     14418     14420     14417     14415     14418     14421
     14418     14421     14424     14425     14418     14421     14424     14426
     14418     14421     14424     14427     14419     14418     14421     14422
     14419     14418     14421     14423     14419     14418     14421     14424
     14420     14418     14421     14422     14420     14418     14421     14423
     14420     14418     14421     14424     14421     14424     14427     14428
     14421     14424     14427     14429     14421     14424     14427     14430
     14422     14421     14424     14425     14422     14421     14424     14426
     14422     14421     14424     14427     14423     14421     14424     14425
     14423     14421     14424     14426     14423     14421     14424     14427
     14424     14427     14430     14431     14424     14427     14430     14432
     14424     14427     14430     14433     14425     14424     14427     14428
     14425     14424     14427     14429     14425     14424     14427     14430
     14426     14424     14427     14428     14426     14424     14427     14429
     14426     14424     14427     14430     14427     14430     14433     14434
     14427     14430     14433     14435     14427     14430     14433     14436
     14428     14427     14430     14431     14428     14427     14430     14432
     14428     14427     14430     14433     14429     14427     14430     14431
     14429     14427     14430     14432     14429     14427     14430     14433
     14431     14430     14433     14434     14431     14430     14433     14435
     14431     14430     14433     14436     14432     14430     14433     14434
     14432     14430     14433     14435     14432     14430     14433     14436
     14437     14438     14453     14454     14437     14438     14453     14455
     14437     14438     14453     14459     14438     14437     14441     14442
     14438     14437     14441     14443     14438     14437     14441     14444
     14438     14437     14445     14446     14438     14437     14445     14447
     14438     14437     14445     14448     14438     14437     14449     14450
     14438     14437     14449     14451     14438     14437     14449     14452
     14438     14453     14459     14456     14439     14438     14437     14441
     14439     14438     14437     14445     14439     14438     14437     14449
     14439     14438     14453     14454     14439     14438     14453     14455
     14439     14438     14453     14459     14440     14438     14437     14441
     14440     14438     14437     14445     14440     14438     14437     14449
     14440     14438     14453     14454     14440     14438     14453     14455
     14440     14438     14453     14459     14441     14437     14438     14453
     14441     14437     14445     14446     14441     14437     14445     14447
     14441     14437     14445     14448     14441     14437     14449     14450
     14441     14437     14449     14451     14441     14437     14449     14452
     14442     14441     14437     14445     14442     14441     14437     14449
     14443     14441     14437     14445     14443     14441     14437     14449
     14444     14441     14437     14445     14444     14441     14437     14449
     14445     14437     14438     14453     14445     14437     14449     14450
     14445     14437     14449     14451     14445     14437     14449     14452
     14446     14445     14437     14449     14447     14445     14437     14449
     14448     14445     14437     14449     14449     14437     14438     14453
     14453     14459     14456     14457     14453     14459     14456     14458
     14453     14459     14456     14460     14454     14453     14459     14456
     14455     14453     14459     14456     14456     14460     14461     14462
     14456     14460     14461     14463     14456     14460     14461     14464
     14457     14456     14460     14461     14458     14456     14460     14461
     14459     14456     14460     14461     14460     14461     14464     14465
     14460     14461     14464     14466     14460     14461     14464     14472
     14461     14464     14466     14467     14461     14464     14472     14473
     14461     14464     14472     14474     14461     14464     14472     14475
     14462     14461     14464     14465     14462     14461     14464     14466
     14462     14461     14464     14472     14463     14461     14464     14465
     14463     14461     14464     14466     14463     14461     14464     14472
     14464     14466     14467     14468     14464     14466     14467     14469
     14464     14472     14475     14476     14465     14464     14466     14467
     14465     14464     14472     14473     14465     14464     14472     14474
     14465     14464     14472     14475     14466     14464     14472     14473
     14466     14464     14472     14474     14466     14464     14472     14475
     14466     14467     14469     14470     14466     14467     14469     14471
     14466     14467     14469     14481     14467     14466     14464     14472
     14467     14469     14481     14482     14467     14469     14481     14483
     14467     14469     14481     14484     14468     14467     14469     14470
     14468     14467     14469     14471     14468     14467     14469     14481
     14469     14481     14484     14485     14469     14481     14484     14486
     14469     14481     14484     14487     14470     14469     14481     14482
     14470     14469     14481     14483     14470     14469     14481     14484
     14471     14469     14481     14482     14471     14469     14481     14483
     14471     14469     14481     14484     14472     14475     14476     14477
     14472     14475     14476     14478     14473     14472     14475     14476
     14474     14472     14475     14476     14475     14476     14478     14479
     14475     14476     14478     14480     14475     14476     14478     14528
     14476     14478     14528     14529     14476     14478     14528     14530
     14476     14478     14528     14531     14477     14476     14478     14479
     14477     14476     14478     14480     14477     14476     14478     14528
     14478     14528     14531     14532     14478     14528     14531     14533
     14478     14528     14531     14534     14479     14478     14528     14529
     14479     14478     14528     14530     14479     14478     14528     14531
     14480     14478     14528     14529     14480     14478     14528     14530
     14480     14478     14528     14531     14481     14484     14487     14488
     14481     14484     14487     14489     14481     14484     14487     14490
     14482     14481     14484     14485     14482     14481     14484     14486
     14482     14481     14484     14487     14483     14481     14484     14485
     14483     14481     14484     14486     14483     14481     14484     14487
     14484     14487     14490     14491     14484     14487     14490     14492
     14484     14487     14490     14493     14485     14484     14487     14488
     14485     14484     14487     14489     14485     14484     14487     14490
     14486     14484     14487     14488     14486     14484     14487     14489
     14486     14484     14487     14490     14487     14490     14493     14494
     14487     14490     14493     14495     14487     14490     14493     14496
     14488     14487     14490     14491     14488     14487     14490     14492
     14488     14487     14490     14493     14489     14487     14490     14491
     14489     14487     14490     14492     14489     14487     14490     14493
     14490     14493     14496     14497     14490     14493     14496     14498
     14490     14493     14496     14499     14491     14490     14493     14494
     14491     14490     14493     14495     14491     14490     14493     14496
     14492     14490     14493     14494     14492     14490     14493     14495
     14492     14490     14493     14496     14493     14496     14499     14500
     14493     14496     14499     14501     14494     14493     14496     14497
     14494     14493     14496     14498     14494     14493     14496     14499
     14495     14493     14496     14497     14495     14493     14496     14498
     14495     14493     14496     14499     14496     14499     14501     14502
     14496     14499     14501     14503     14497     14496     14499     14500
     14497     14496     14499     14501     14498     14496     14499     14500
     14498     14496     14499     14501     14499     14501     14503     14504
     14499     14501     14503     14505     14499     14501     14503     14506
     14500     14499     14501     14502     14500     14499     14501     14503
     14501     14503     14506     14507     14501     14503     14506     14508
     14501     14503     14506     14509     14502     14501     14503     14504
     14502     14501     14503     14505     14502     14501     14503     14506
     14503     14506     14509     14510     14503     14506     14509     14511
     14503     14506     14509     14512     14504     14503     14506     14507
     14504     14503     14506     14508     14504     14503     14506     14509
     14505     14503     14506     14507     14505     14503     14506     14508
     14505     14503     14506     14509     14506     14509     14512     14513
     14506     14509     14512     14514     14506     14509     14512     14515
     14507     14506     14509     14510     14507     14506     14509     14511
     14507     14506     14509     14512     14508     14506     14509     14510
     14508     14506     14509     14511     14508     14506     14509     14512
     14509     14512     14515     14516     14509     14512     14515     14517
     14509     14512     14515     14518     14510     14509     14512     14513
     14510     14509     14512     14514     14510     14509     14512     14515
     14511     14509     14512     14513     14511     14509     14512     14514
     14511     14509     14512     14515     14512     14515     14518     14519
     14512     14515     14518     14520     14512     14515     14518     14521
     14513     14512     14515     14516     14513     14512     14515     14517
     14513     14512     14515     14518     14514     14512     14515     14516
     14514     14512     14515     14517     14514     14512     14515     14518
     14515     14518     14521     14522     14515     14518     14521     14523
     14515     14518     14521     14524     14516     14515     14518     14519
     14516     14515     14518     14520     14516     14515     14518     14521
     14517     14515     14518     14519     14517     14515     14518     14520
     14517     14515     14518     14521     14518     14521     14524     14525
     14518     14521     14524     14526     14518     14521     14524     14527
     14519     14518     14521     14522     14519     14518     14521     14523
     14519     14518     14521     14524     14520     14518     14521     14522
     14520     14518     14521     14523     14520     14518     14521     14524
     14522     14521     14524     14525     14522     14521     14524     14526
     14522     14521     14524     14527     14523     14521     14524     14525
     14523     14521     14524     14526     14523     14521     14524     14527
     14528     14531     14534     14535     14528     14531     14534     14536
     14528     14531     14534     14537     14529     14528     14531     14532
     14529     14528     14531     14533     14529     14528     14531     14534
     14530     14528     14531     14532     14530     14528     14531     14533
     14530     14528     14531     14534     14531     14534     14537     14538
     14531     14534     14537     14539     14531     14534     14537     14540
     14532     14531     14534     14535     14532     14531     14534     14536
     14532     14531     14534     14537     14533     14531     14534     14535
     14533     14531     14534     14536     14533     14531     14534     14537
     14534     14537     14540     14541     14534     14537     14540     14542
     14534     14537     14540     14543     14535     14534     14537     14538
     14535     14534     14537     14539     14535     14534     14537     14540
     14536     14534     14537     14538     14536     14534     14537     14539
     14536     14534     14537     14540     14537     14540     14543     14544
     14537     14540     14543     14545     14537     14540     14543     14546
     14538     14537     14540     14541     14538     14537     14540     14542
     14538     14537     14540     14543     14539     14537     14540     14541
     14539     14537     14540     14542     14539     14537     14540     14543
     14540     14543     14546     14547     14540     14543     14546     14548
     14540     14543     14546     14549     14541     14540     14543     14544
     14541     14540     14543     14545     14541     14540     14543     14546
     14542     14540     14543     14544     14542     14540     14543     14545
     14542     14540     14543     14546     14543     14546     14549     14550
     14543     14546     14549     14551     14543     14546     14549     14552
     14544     14543     14546     14547     14544     14543     14546     14548
     14544     14543     14546     14549     14545     14543     14546     14547
     14545     14543     14546     14548     14545     14543     14546     14549
     14546     14549     14552     14553     14546     14549     14552     14554
     14546     14549     14552     14555     14547     14546     14549     14550
     14547     14546     14549     14551     14547     14546     14549     14552
     14548     14546     14549     14550     14548     14546     14549     14551
     14548     14546     14549     14552     14549     14552     14555     14556
     14549     14552     14555     14557     14549     14552     14555     14558
     14550     14549     14552     14553     14550     14549     14552     14554
     14550     14549     14552     14555     14551     14549     14552     14553
     14551     14549     14552     14554     14551     14549     14552     14555
     14552     14555     14558     14559     14552     14555     14558     14560
     14552     14555     14558     14561     14553     14552     14555     14556
     14553     14552     14555     14557     14553     14552     14555     14558
     14554     14552     14555     14556     14554     14552     14555     14557
     14554     14552     14555     14558     14555     14558     14561     14562
     14555     14558     14561     14563     14555     14558     14561     14564
     14556     14555     14558     14559     14556     14555     14558     14560
     14556     14555     14558     14561     14557     14555     14558     14559
     14557     14555     14558     14560     14557     14555     14558     14561
     14558     14561     14564     14565     14558     14561     14564     14566
     14558     14561     14564     14567     14559     14558     14561     14562
     14559     14558     14561     14563     14559     14558     14561     14564
     14560     14558     14561     14562     14560     14558     14561     14563
     14560     14558     14561     14564     14561     14564     14567     14568
     14561     14564     14567     14569     14561     14564     14567     14570
     14562     14561     14564     14565     14562     14561     14564     14566
     14562     14561     14564     14567     14563     14561     14564     14565
     14563     14561     14564     14566     14563     14561     14564     14567
     14565     14564     14567     14568     14565     14564     14567     14569
     14565     14564     14567     14570     14566     14564     14567     14568
     14566     14564     14567     14569     14566     14564     14567     14570
     14571     14575     14577     14578     14571     14575     14577     14579
     14571     14575     14580     14581     14571     14575     14580     14582
     14571     14575     14580     14586     14572     14571     14575     14576
     14572     14571     14575     14577     14572     14571     14575     14580
     14573     14571     14575     14576     14573     14571     14575     14577
     14573     14571     14575     14580     14574     14571     14575     14576
     14574     14571     14575     14577     14574     14571     14575     14580
     14575     14580     14586     14583     14576     14575     14577     14578
     14576     14575     14577     14579     14576     14575     14580     14581
     14576     14575     14580     14582     14576     14575     14580     14586
     14577     14575     14580     14581     14577     14575     14580     14582
     14577     14575     14580     14586     14578     14577     14575     14580
     14579     14577     14575     14580     14580     14586     14583     14584
     14580     14586     14583     14585     14580     14586     14583     14587
     14581     14580     14586     14583     14582     14580     14586     14583
     14583     14587     14588     14589     14583     14587     14588     14590
     14583     14587     14588     14591     14584     14583     14587     14588
     14585     14583     14587     14588     14586     14583     14587     14588
     14587     14588     14591     14592     14587     14588     14591     14593
     14587     14588     14591     14599     14588     14591     14593     14594
     14588     14591     14599     14600     14588     14591     14599     14601
     14588     14591     14599     14602     14589     14588     14591     14592
     14589     14588     14591     14593     14589     14588     14591     14599
     14590     14588     14591     14592     14590     14588     14591     14593
     14590     14588     14591     14599     14591     14593     14594     14595
     14591     14593     14594     14596     14591     14599     14602     14603
     14592     14591     14593     14594     14592     14591     14599     14600
     14592     14591     14599     14601     14592     14591     14599     14602
     14593     14591     14599     14600     14593     14591     14599     14601
     14593     14591     14599     14602     14593     14594     14596     14597
     14593     14594     14596     14598     14593     14594     14596     14608
     14594     14593     14591     14599     14594     14596     14608     14609
     14594     14596     14608     14610     14594     14596     14608     14611
     14595     14594     14596     14597     14595     14594     14596     14598
     14595     14594     14596     14608     14596     14608     14611     14612
     14596     14608     14611     14613     14596     14608     14611     14614
     14597     14596     14608     14609     14597     14596     14608     14610
     14597     14596     14608     14611     14598     14596     14608     14609
     14598     14596     14608     14610     14598     14596     14608     14611
     14599     14602     14603     14604     14599     14602     14603     14605
     14600     14599     14602     14603     14601     14599     14602     14603
     14602     14603     14605     14606     14602     14603     14605     14607
     14602     14603     14605     14655     14603     14605     14655     14656
     14603     14605     14655     14657     14603     14605     14655     14658
     14604     14603     14605     14606     14604     14603     14605     14607
     14604     14603     14605     14655     14605     14655     14658     14659
     14605     14655     14658     14660     14605     14655     14658     14661
     14606     14605     14655     14656     14606     14605     14655     14657
     14606     14605     14655     14658     14607     14605     14655     14656
     14607     14605     14655     14657     14607     14605     14655     14658
     14608     14611     14614     14615     14608     14611     14614     14616
     14608     14611     14614     14617     14609     14608     14611     14612
     14609     14608     14611     14613     14609     14608     14611     14614
     14610     14608     14611     14612     14610     14608     14611     14613
     14610     14608     14611     14614     14611     14614     14617     14618
     14611     14614     14617     14619     14611     14614     14617     14620
     14612     14611     14614     14615     14612     14611     14614     14616
     14612     14611     14614     14617     14613     14611     14614     14615
     14613     14611     14614     14616     14613     14611     14614     14617
     14614     14617     14620     14621     14614     14617     14620     14622
     14614     14617     14620     14623     14615     14614     14617     14618
     14615     14614     14617     14619     14615     14614     14617     14620
     14616     14614     14617     14618     14616     14614     14617     14619
     14616     14614     14617     14620     14617     14620     14623     14624
     14617     14620     14623     14625     14617     14620     14623     14626
     14618     14617     14620     14621     14618     14617     14620     14622
     14618     14617     14620     14623     14619     14617     14620     14621
     14619     14617     14620     14622     14619     14617     14620     14623
     14620     14623     14626     14627     14620     14623     14626     14628
     14621     14620     14623     14624     14621     14620     14623     14625
     14621     14620     14623     14626     14622     14620     14623     14624
     14622     14620     14623     14625     14622     14620     14623     14626
     14623     14626     14628     14629     14623     14626     14628     14630
     14624     14623     14626     14627     14624     14623     14626     14628
     14625     14623     14626     14627     14625     14623     14626     14628
     14626     14628     14630     14631     14626     14628     14630     14632
     14626     14628     14630     14633     14627     14626     14628     14629
     14627     14626     14628     14630     14628     14630     14633     14634
     14628     14630     14633     14635     14628     14630     14633     14636
     14629     14628     14630     14631     14629     14628     14630     14632
     14629     14628     14630     14633     14630     14633     14636     14637
     14630     14633     14636     14638     14630     14633     14636     14639
     14631     14630     14633     14634     14631     14630     14633     14635
     14631     14630     14633     14636     14632     14630     14633     14634
     14632     14630     14633     14635     14632     14630     14633     14636
     14633     14636     14639     14640     14633     14636     14639     14641
     14633     14636     14639     14642     14634     14633     14636     14637
     14634     14633     14636     14638     14634     14633     14636     14639
     14635     14633     14636     14637     14635     14633     14636     14638
     14635     14633     14636     14639     14636     14639     14642     14643
     14636     14639     14642     14644     14636     14639     14642     14645
     14637     14636     14639     14640     14637     14636     14639     14641
     14637     14636     14639     14642     14638     14636     14639     14640
     14638     14636     14639     14641     14638     14636     14639     14642
     14639     14642     14645     14646     14639     14642     14645     14647
     14639     14642     14645     14648     14640     14639     14642     14643
     14640     14639     14642     14644     14640     14639     14642     14645
     14641     14639     14642     14643     14641     14639     14642     14644
     14641     14639     14642     14645     14642     14645     14648     14649
     14642     14645     14648     14650     14642     14645     14648     14651
     14643     14642     14645     14646     14643     14642     14645     14647
     14643     14642     14645     14648     14644     14642     14645     14646
     14644     14642     14645     14647     14644     14642     14645     14648
     14645     14648     14651     14652     14645     14648     14651     14653
     14645     14648     14651     14654     14646     14645     14648     14649
     14646     14645     14648     14650     14646     14645     14648     14651
     14647     14645     14648     14649     14647     14645     14648     14650
     14647     14645     14648     14651     14649     14648     14651     14652
     14649     14648     14651     14653     14649     14648     14651     14654
     14650     14648     14651     14652     14650     14648     14651     14653
     14650     14648     14651     14654     14655     14658     14661     14662
     14655     14658     14661     14663     14655     14658     14661     14664
     14656     14655     14658     14659     14656     14655     14658     14660
     14656     14655     14658     14661     14657     14655     14658     14659
     14657     14655     14658     14660     14657     14655     14658     14661
     14658     14661     14664     14665     14658     14661     14664     14666
     14658     14661     14664     14667     14659     14658     14661     14662
     14659     14658     14661     14663     14659     14658     14661     14664
     14660     14658     14661     14662     14660     14658     14661     14663
     14660     14658     14661     14664     14661     14664     14667     14668
     14661     14664     14667     14669     14661     14664     14667     14670
     14662     14661     14664     14665     14662     14661     14664     14666
     14662     14661     14664     14667     14663     14661     14664     14665
     14663     14661     14664     14666     14663     14661     14664     14667
     14664     14667     14670     14671     14664     14667     14670     14672
     14664     14667     14670     14673     14665     14664     14667     14668
     14665     14664     14667     14669     14665     14664     14667     14670
     14666     14664     14667     14668     14666     14664     14667     14669
     14666     14664     14667     14670     14667     14670     14673     14674
     14667     14670     14673     14675     14667     14670     14673     14676
     14668     14667     14670     14671     14668     14667     14670     14672
     14668     14667     14670     14673     14669     14667     14670     14671
     14669     14667     14670     14672     14669     14667     14670     14673
     14670     14673     14676     14677     14670     14673     14676     14678
     14670     14673     14676     14679     14671     14670     14673     14674
     14671     14670     14673     14675     14671     14670     14673     14676
     14672     14670     14673     14674     14672     14670     14673     14675
     14672     14670     14673     14676     14673     14676     14679     14680
     14673     14676     14679     14681     14673     14676     14679     14682
     14674     14673     14676     14677     14674     14673     14676     14678
     14674     14673     14676     14679     14675     14673     14676     14677
     14675     14673     14676     14678     14675     14673     14676     14679
     14676     14679     14682     14683     14676     14679     14682     14684
     14676     14679     14682     14685     14677     14676     14679     14680
     14677     14676     14679     14681     14677     14676     14679     14682
     14678     14676     14679     14680     14678     14676     14679     14681
     14678     14676     14679     14682     14679     14682     14685     14686
     14679     14682     14685     14687     14679     14682     14685     14688
     14680     14679     14682     14683     14680     14679     14682     14684
     14680     14679     14682     14685     14681     14679     14682     14683
     14681     14679     14682     14684     14681     14679     14682     14685
     14682     14685     14688     14689     14682     14685     14688     14690
     14682     14685     14688     14691     14683     14682     14685     14686
     14683     14682     14685     14687     14683     14682     14685     14688
     14684     14682     14685     14686     14684     14682     14685     14687
     14684     14682     14685     14688     14685     14688     14691     14692
     14685     14688     14691     14693     14685     14688     14691     14694
     14686     14685     14688     14689     14686     14685     14688     14690
     14686     14685     14688     14691     14687     14685     14688     14689
     14687     14685     14688     14690     14687     14685     14688     14691
     14688     14691     14694     14695     14688     14691     14694     14696
     14688     14691     14694     14697     14689     14688     14691     14692
     14689     14688     14691     14693     14689     14688     14691     14694
     14690     14688     14691     14692     14690     14688     14691     14693
     14690     14688     14691     14694     14692     14691     14694     14695
     14692     14691     14694     14696     14692     14691     14694     14697
     14693     14691     14694     14695     14693     14691     14694     14696
     14693     14691     14694     14697     14698     14702     14704     14705
     14698     14702     14704     14706     14698     14702     14707     14708
     14698     14702     14707     14709     14698     14702     14707     14713
     14699     14698     14702     14703     14699     14698     14702     14704
     14699     14698     14702     14707     14700     14698     14702     14703
     14700     14698     14702     14704     14700     14698     14702     14707
     14701     14698     14702     14703     14701     14698     14702     14704
     14701     14698     14702     14707     14702     14707     14713     14710
     14703     14702     14704     14705     14703     14702     14704     14706
     14703     14702     14707     14708     14703     14702     14707     14709
     14703     14702     14707     14713     14704     14702     14707     14708
     14704     14702     14707     14709     14704     14702     14707     14713
     14705     14704     14702     14707     14706     14704     14702     14707
     14707     14713     14710     14711     14707     14713     14710     14712
     14707     14713     14710     14714     14708     14707     14713     14710
     14709     14707     14713     14710     14710     14714     14715     14716
     14710     14714     14715     14717     14710     14714     14715     14718
     14711     14710     14714     14715     14712     14710     14714     14715
     14713     14710     14714     14715     14714     14715     14718     14719
     14714     14715     14718     14720     14714     14715     14718     14726
     14715     14718     14720     14721     14715     14718     14726     14727
     14715     14718     14726     14728     14715     14718     14726     14729
     14716     14715     14718     14719     14716     14715     14718     14720
     14716     14715     14718     14726     14717     14715     14718     14719
     14717     14715     14718     14720     14717     14715     14718     14726
     14718     14720     14721     14722     14718     14720     14721     14723
     14718     14726     14729     14730     14719     14718     14720     14721
     14719     14718     14726     14727     14719     14718     14726     14728
     14719     14718     14726     14729     14720     14718     14726     14727
     14720     14718     14726     14728     14720     14718     14726     14729
     14720     14721     14723     14724     14720     14721     14723     14725
     14720     14721     14723     14735     14721     14720     14718     14726
     14721     14723     14735     14736     14721     14723     14735     14737
     14721     14723     14735     14738     14722     14721     14723     14724
     14722     14721     14723     14725     14722     14721     14723     14735
     14723     14735     14738     14739     14723     14735     14738     14740
     14723     14735     14738     14741     14724     14723     14735     14736
     14724     14723     14735     14737     14724     14723     14735     14738
     14725     14723     14735     14736     14725     14723     14735     14737
     14725     14723     14735     14738     14726     14729     14730     14731
     14726     14729     14730     14732     14727     14726     14729     14730
     14728     14726     14729     14730     14729     14730     14732     14733
     14729     14730     14732     14734     14729     14730     14732     14782
     14730     14732     14782     14783     14730     14732     14782     14784
     14730     14732     14782     14785     14731     14730     14732     14733
     14731     14730     14732     14734     14731     14730     14732     14782
     14732     14782     14785     14786     14732     14782     14785     14787
     14732     14782     14785     14788     14733     14732     14782     14783
     14733     14732     14782     14784     14733     14732     14782     14785
     14734     14732     14782     14783     14734     14732     14782     14784
     14734     14732     14782     14785     14735     14738     14741     14742
     14735     14738     14741     14743     14735     14738     14741     14744
     14736     14735     14738     14739     14736     14735     14738     14740
     14736     14735     14738     14741     14737     14735     14738     14739
     14737     14735     14738     14740     14737     14735     14738     14741
     14738     14741     14744     14745     14738     14741     14744     14746
     14738     14741     14744     14747     14739     14738     14741     14742
     14739     14738     14741     14743     14739     14738     14741     14744
     14740     14738     14741     14742     14740     14738     14741     14743
     14740     14738     14741     14744     14741     14744     14747     14748
     14741     14744     14747     14749     14741     14744     14747     14750
     14742     14741     14744     14745     14742     14741     14744     14746
     14742     14741     14744     14747     14743     14741     14744     14745
     14743     14741     14744     14746     14743     14741     14744     14747
     14744     14747     14750     14751     14744     14747     14750     14752
     14744     14747     14750     14753     14745     14744     14747     14748
     14745     14744     14747     14749     14745     14744     14747     14750
     14746     14744     14747     14748     14746     14744     14747     14749
     14746     14744     14747     14750     14747     14750     14753     14754
     14747     14750     14753     14755     14748     14747     14750     14751
     14748     14747     14750     14752     14748     14747     14750     14753
     14749     14747     14750     14751     14749     14747     14750     14752
     14749     14747     14750     14753     14750     14753     14755     14756
     14750     14753     14755     14757     14751     14750     14753     14754
     14751     14750     14753     14755     14752     14750     14753     14754
     14752     14750     14753     14755     14753     14755     14757     14758
     14753     14755     14757     14759     14753     14755     14757     14760
     14754     14753     14755     14756     14754     14753     14755     14757
     14755     14757     14760     14761     14755     14757     14760     14762
     14755     14757     14760     14763     14756     14755     14757     14758
     14756     14755     14757     14759     14756     14755     14757     14760
     14757     14760     14763     14764     14757     14760     14763     14765
     14757     14760     14763     14766     14758     14757     14760     14761
     14758     14757     14760     14762     14758     14757     14760     14763
     14759     14757     14760     14761     14759     14757     14760     14762
     14759     14757     14760     14763     14760     14763     14766     14767
     14760     14763     14766     14768     14760     14763     14766     14769
     14761     14760     14763     14764     14761     14760     14763     14765
     14761     14760     14763     14766     14762     14760     14763     14764
     14762     14760     14763     14765     14762     14760     14763     14766
     14763     14766     14769     14770     14763     14766     14769     14771
     14763     14766     14769     14772     14764     14763     14766     14767
     14764     14763     14766     14768     14764     14763     14766     14769
     14765     14763     14766     14767     14765     14763     14766     14768
     14765     14763     14766     14769     14766     14769     14772     14773
     14766     14769     14772     14774     14766     14769     14772     14775
     14767     14766     14769     14770     14767     14766     14769     14771
     14767     14766     14769     14772     14768     14766     14769     14770
     14768     14766     14769     14771     14768     14766     14769     14772
     14769     14772     14775     14776     14769     14772     14775     14777
     14769     14772     14775     14778     14770     14769     14772     14773
     14770     14769     14772     14774     14770     14769     14772     14775
     14771     14769     14772     14773     14771     14769     14772     14774
     14771     14769     14772     14775     14772     14775     14778     14779
     14772     14775     14778     14780     14772     14775     14778     14781
     14773     14772     14775     14776     14773     14772     14775     14777
     14773     14772     14775     14778     14774     14772     14775     14776
     14774     14772     14775     14777     14774     14772     14775     14778
     14776     14775     14778     14779     14776     14775     14778     14780
     14776     14775     14778     14781     14777     14775     14778     14779
     14777     14775     14778     14780     14777     14775     14778     14781
     14782     14785     14788     14789     14782     14785     14788     14790
     14782     14785     14788     14791     14783     14782     14785     14786
     14783     14782     14785     14787     14783     14782     14785     14788
     14784     14782     14785     14786     14784     14782     14785     14787
     14784     14782     14785     14788     14785     14788     14791     14792
     14785     14788     14791     14793     14785     14788     14791     14794
     14786     14785     14788     14789     14786     14785     14788     14790
     14786     14785     14788     14791     14787     14785     14788     14789
     14787     14785     14788     14790     14787     14785     14788     14791
     14788     14791     14794     14795     14788     14791     14794     14796
     14788     14791     14794     14797     14789     14788     14791     14792
     14789     14788     14791     14793     14789     14788     14791     14794
     14790     14788     14791     14792     14790     14788     14791     14793
     14790     14788     14791     14794     14791     14794     14797     14798
     14791     14794     14797     14799     14791     14794     14797     14800
     14792     14791     14794     14795     14792     14791     14794     14796
     14792     14791     14794     14797     14793     14791     14794     14795
     14793     14791     14794     14796     14793     14791     14794     14797
     14794     14797     14800     14801     14794     14797     14800     14802
     14794     14797     14800     14803     14795     14794     14797     14798
     14795     14794     14797     14799     14795     14794     14797     14800
     14796     14794     14797     14798     14796     14794     14797     14799
     14796     14794     14797     14800     14797     14800     14803     14804
     14797     14800     14803     14805     14797     14800     14803     14806
     14798     14797     14800     14801     14798     14797     14800     14802
     14798     14797     14800     14803     14799     14797     14800     14801
     14799     14797     14800     14802     14799     14797     14800     14803
     14800     14803     14806     14807     14800     14803     14806     14808
     14800     14803     14806     14809     14801     14800     14803     14804
     14801     14800     14803     14805     14801     14800     14803     14806
     14802     14800     14803     14804     14802     14800     14803     14805
     14802     14800     14803     14806     14803     14806     14809     14810
     14803     14806     14809     14811     14803     14806     14809     14812
     14804     14803     14806     14807     14804     14803     14806     14808
     14804     14803     14806     14809     14805     14803     14806     14807
     14805     14803     14806     14808     14805     14803     14806     14809
     14806     14809     14812     14813     14806     14809     14812     14814
     14806     14809     14812     14815     14807     14806     14809     14810
     14807     14806     14809     14811     14807     14806     14809     14812
     14808     14806     14809     14810     14808     14806     14809     14811
     14808     14806     14809     14812     14809     14812     14815     14816
     14809     14812     14815     14817     14809     14812     14815     14818
     14810     14809     14812     14813     14810     14809     14812     14814
     14810     14809     14812     14815     14811     14809     14812     14813
     14811     14809     14812     14814     14811     14809     14812     14815
     14812     14815     14818     14819     14812     14815     14818     14820
     14812     14815     14818     14821     14813     14812     14815     14816
     14813     14812     14815     14817     14813     14812     14815     14818
     14814     14812     14815     14816     14814     14812     14815     14817
     14814     14812     14815     14818     14815     14818     14821     14822
     14815     14818     14821     14823     14815     14818     14821     14824
     14816     14815     14818     14819     14816     14815     14818     14820
     14816     14815     14818     14821     14817     14815     14818     14819
     14817     14815     14818     14820     14817     14815     14818     14821
     14819     14818     14821     14822     14819     14818     14821     14823
     14819     14818     14821     14824     14820     14818     14821     14822
     14820     14818     14821     14823     14820     14818     14821     14824
     14825     14826     14841     14842     14825     14826     14841     14843
     14825     14826     14841     14847     14826     14825     14829     14830
     14826     14825     14829     14831     14826     14825     14829     14832
     14826     14825     14833     14834     14826     14825     14833     14835
     14826     14825     14833     14836     14826     14825     14837     14838
     14826     14825     14837     14839     14826     14825     14837     14840
     14826     14841     14847     14844     14827     14826     14825     14829
     14827     14826     14825     14833     14827     14826     14825     14837
     14827     14826     14841     14842     14827     14826     14841     14843
     14827     14826     14841     14847     14828     14826     14825     14829
     14828     14826     14825     14833     14828     14826     14825     14837
     14828     14826     14841     14842     14828     14826     14841     14843
     14828     14826     14841     14847     14829     14825     14826     14841
     14829     14825     14833     14834     14829     14825     14833     14835
     14829     14825     14833     14836     14829     14825     14837     14838
     14829     14825     14837     14839     14829     14825     14837     14840
     14830     14829     14825     14833     14830     14829     14825     14837
     14831     14829     14825     14833     14831     14829     14825     14837
     14832     14829     14825     14833     14832     14829     14825     14837
     14833     14825     14826     14841     14833     14825     14837     14838
     14833     14825     14837     14839     14833     14825     14837     14840
     14834     14833     14825     14837     14835     14833     14825     14837
     14836     14833     14825     14837     14837     14825     14826     14841
     14841     14847     14844     14845     14841     14847     14844     14846
     14841     14847     14844     14848     14842     14841     14847     14844
     14843     14841     14847     14844     14844     14848     14849     14850
     14844     14848     14849     14851     14844     14848     14849     14852
     14845     14844     14848     14849     14846     14844     14848     14849
     14847     14844     14848     14849     14848     14849     14852     14853
     14848     14849     14852     14854     14848     14849     14852     14860
     14849     14852     14854     14855     14849     14852     14860     14861
     14849     14852     14860     14862     14849     14852     14860     14863
     14850     14849     14852     14853     14850     14849     14852     14854
     14850     14849     14852     14860     14851     14849     14852     14853
     14851     14849     14852     14854     14851     14849     14852     14860
     14852     14854     14855     14856     14852     14854     14855     14857
     14852     14860     14863     14864     14853     14852     14854     14855
     14853     14852     14860     14861     14853     14852     14860     14862
     14853     14852     14860     14863     14854     14852     14860     14861
     14854     14852     14860     14862     14854     14852     14860     14863
     14854     14855     14857     14858     14854     14855     14857     14859
     14854     14855     14857     14869     14855     14854     14852     14860
     14855     14857     14869     14870     14855     14857     14869     14871
     14855     14857     14869     14872     14856     14855     14857     14858
     14856     14855     14857     14859     14856     14855     14857     14869
     14857     14869     14872     14873     14857     14869     14872     14874
     14857     14869     14872     14875     14858     14857     14869     14870
     14858     14857     14869     14871     14858     14857     14869     14872
     14859     14857     14869     14870     14859     14857     14869     14871
     14859     14857     14869     14872     14860     14863     14864     14865
     14860     14863     14864     14866     14861     14860     14863     14864
     14862     14860     14863     14864     14863     14864     14866     14867
     14863     14864     14866     14868     14863     14864     14866     14916
     14864     14866     14916     14917     14864     14866     14916     14918
     14864     14866     14916     14919     14865     14864     14866     14867
     14865     14864     14866     14868     14865     14864     14866     14916
     14866     14916     14919     14920     14866     14916     14919     14921
     14866     14916     14919     14922     14867     14866     14916     14917
     14867     14866     14916     14918     14867     14866     14916     14919
     14868     14866     14916     14917     14868     14866     14916     14918
     14868     14866     14916     14919     14869     14872     14875     14876
     14869     14872     14875     14877     14869     14872     14875     14878
     14870     14869     14872     14873     14870     14869     14872     14874
     14870     14869     14872     14875     14871     14869     14872     14873
     14871     14869     14872     14874     14871     14869     14872     14875
     14872     14875     14878     14879     14872     14875     14878     14880
     14872     14875     14878     14881     14873     14872     14875     14876
     14873     14872     14875     14877     14873     14872     14875     14878
     14874     14872     14875     14876     14874     14872     14875     14877
     14874     14872     14875     14878     14875     14878     14881     14882
     14875     14878     14881     14883     14875     14878     14881     14884
     14876     14875     14878     14879     14876     14875     14878     14880
     14876     14875     14878     14881     14877     14875     14878     14879
     14877     14875     14878     14880     14877     14875     14878     14881
     14878     14881     14884     14885     14878     14881     14884     14886
     14878     14881     14884     14887     14879     14878     14881     14882
     14879     14878     14881     14883     14879     14878     14881     14884
     14880     14878     14881     14882     14880     14878     14881     14883
     14880     14878     14881     14884     14881     14884     14887     14888
     14881     14884     14887     14889     14882     14881     14884     14885
     14882     14881     14884     14886     14882     14881     14884     14887
     14883     14881     14884     14885     14883     14881     14884     14886
     14883     14881     14884     14887     14884     14887     14889     14890
     14884     14887     14889     14891     14885     14884     14887     14888
     14885     14884     14887     14889     14886     14884     14887     14888
     14886     14884     14887     14889     14887     14889     14891     14892
     14887     14889     14891     14893     14887     14889     14891     14894
     14888     14887     14889     14890     14888     14887     14889     14891
     14889     14891     14894     14895     14889     14891     14894     14896
     14889     14891     14894     14897     14890     14889     14891     14892
     14890     14889     14891     14893     14890     14889     14891     14894
     14891     14894     14897     14898     14891     14894     14897     14899
     14891     14894     14897     14900     14892     14891     14894     14895
     14892     14891     14894     14896     14892     14891     14894     14897
     14893     14891     14894     14895     14893     14891     14894     14896
     14893     14891     14894     14897     14894     14897     14900     14901
     14894     14897     14900     14902     14894     14897     14900     14903
     14895     14894     14897     14898     14895     14894     14897     14899
     14895     14894     14897     14900     14896     14894     14897     14898
     14896     14894     14897     14899     14896     14894     14897     14900
     14897     14900     14903     14904     14897     14900     14903     14905
     14897     14900     14903     14906     14898     14897     14900     14901
     14898     14897     14900     14902     14898     14897     14900     14903
     14899     14897     14900     14901     14899     14897     14900     14902
     14899     14897     14900     14903     14900     14903     14906     14907
     14900     14903     14906     14908     14900     14903     14906     14909
     14901     14900     14903     14904     14901     14900     14903     14905
     14901     14900     14903     14906     14902     14900     14903     14904
     14902     14900     14903     14905     14902     14900     14903     14906
     14903     14906     14909     14910     14903     14906     14909     14911
     14903     14906     14909     14912     14904     14903     14906     14907
     14904     14903     14906     14908     14904     14903     14906     14909
     14905     14903     14906     14907     14905     14903     14906     14908
     14905     14903     14906     14909     14906     14909     14912     14913
     14906     14909     14912     14914     14906     14909     14912     14915
     14907     14906     14909     14910     14907     14906     14909     14911
     14907     14906     14909     14912     14908     14906     14909     14910
     14908     14906     14909     14911     14908     14906     14909     14912
     14910     14909     14912     14913     14910     14909     14912     14914
     14910     14909     14912     14915     14911     14909     14912     14913
     14911     14909     14912     14914     14911     14909     14912     14915
     14916     14919     14922     14923     14916     14919     14922     14924
     14916     14919     14922     14925     14917     14916     14919     14920
     14917     14916     14919     14921     14917     14916     14919     14922
     14918     14916     14919     14920     14918     14916     14919     14921
     14918     14916     14919     14922     14919     14922     14925     14926
     14919     14922     14925     14927     14919     14922     14925     14928
     14920     14919     14922     14923     14920     14919     14922     14924
     14920     14919     14922     14925     14921     14919     14922     14923
     14921     14919     14922     14924     14921     14919     14922     14925
     14922     14925     14928     14929     14922     14925     14928     14930
     14922     14925     14928     14931     14923     14922     14925     14926
     14923     14922     14925     14927     14923     14922     14925     14928
     14924     14922     14925     14926     14924     14922     14925     14927
     14924     14922     14925     14928     14925     14928     14931     14932
     14925     14928     14931     14933     14925     14928     14931     14934
     14926     14925     14928     14929     14926     14925     14928     14930
     14926     14925     14928     14931     14927     14925     14928     14929
     14927     14925     14928     14930     14927     14925     14928     14931
     14928     14931     14934     14935     14928     14931     14934     14936
     14928     14931     14934     14937     14929     14928     14931     14932
     14929     14928     14931     14933     14929     14928     14931     14934
     14930     14928     14931     14932     14930     14928     14931     14933
     14930     14928     14931     14934     14931     14934     14937     14938
     14931     14934     14937     14939     14931     14934     14937     14940
     14932     14931     14934     14935     14932     14931     14934     14936
     14932     14931     14934     14937     14933     14931     14934     14935
     14933     14931     14934     14936     14933     14931     14934     14937
     14934     14937     14940     14941     14934     14937     14940     14942
     14934     14937     14940     14943     14935     14934     14937     14938
     14935     14934     14937     14939     14935     14934     14937     14940
     14936     14934     14937     14938     14936     14934     14937     14939
     14936     14934     14937     14940     14937     14940     14943     14944
     14937     14940     14943     14945     14937     14940     14943     14946
     14938     14937     14940     14941     14938     14937     14940     14942
     14938     14937     14940     14943     14939     14937     14940     14941
     14939     14937     14940     14942     14939     14937     14940     14943
     14940     14943     14946     14947     14940     14943     14946     14948
     14940     14943     14946     14949     14941     14940     14943     14944
     14941     14940     14943     14945     14941     14940     14943     14946
     14942     14940     14943     14944     14942     14940     14943     14945
     14942     14940     14943     14946     14943     14946     14949     14950
     14943     14946     14949     14951     14943     14946     14949     14952
     14944     14943     14946     14947     14944     14943     14946     14948
     14944     14943     14946     14949     14945     14943     14946     14947
     14945     14943     14946     14948     14945     14943     14946     14949
     14946     14949     14952     14953     14946     14949     14952     14954
     14946     14949     14952     14955     14947     14946     14949     14950
     14947     14946     14949     14951     14947     14946     14949     14952
     14948     14946     14949     14950     14948     14946     14949     14951
     14948     14946     14949     14952     14949     14952     14955     14956
     14949     14952     14955     14957     14949     14952     14955     14958
     14950     14949     14952     14953     14950     14949     14952     14954
     14950     14949     14952     14955     14951     14949     14952     14953
     14951     14949     14952     14954     14951     14949     14952     14955
     14953     14952     14955     14956     14953     14952     14955     14957
     14953     14952     14955     14958     14954     14952     14955     14956
     14954     14952     14955     14957     14954     14952     14955     14958
     14959     14960     14975     14976     14959     14960     14975     14977
     14959     14960     14975     14981     14960     14959     14963     14964
     14960     14959     14963     14965     14960     14959     14963     14966
     14960     14959     14967     14968     14960     14959     14967     14969
     14960     14959     14967     14970     14960     14959     14971     14972
     14960     14959     14971     14973     14960     14959     14971     14974
     14960     14975     14981     14978     14961     14960     14959     14963
     14961     14960     14959     14967     14961     14960     14959     14971
     14961     14960     14975     14976     14961     14960     14975     14977
     14961     14960     14975     14981     14962     14960     14959     14963
     14962     14960     14959     14967     14962     14960     14959     14971
     14962     14960     14975     14976     14962     14960     14975     14977
     14962     14960     14975     14981     14963     14959     14960     14975
     14963     14959     14967     14968     14963     14959     14967     14969
     14963     14959     14967     14970     14963     14959     14971     14972
     14963     14959     14971     14973     14963     14959     14971     14974
     14964     14963     14959     14967     14964     14963     14959     14971
     14965     14963     14959     14967     14965     14963     14959     14971
     14966     14963     14959     14967     14966     14963     14959     14971
     14967     14959     14960     14975     14967     14959     14971     14972
     14967     14959     14971     14973     14967     14959     14971     14974
     14968     14967     14959     14971     14969     14967     14959     14971
     14970     14967     14959     14971     14971     14959     14960     14975
     14975     14981     14978     14979     14975     14981     14978     14980
     14975     14981     14978     14982     14976     14975     14981     14978
     14977     14975     14981     14978     14978     14982     14983     14984
     14978     14982     14983     14985     14978     14982     14983     14986
     14979     14978     14982     14983     14980     14978     14982     14983
     14981     14978     14982     14983     14982     14983     14986     14987
     14982     14983     14986     14988     14982     14983     14986     14994
     14983     14986     14988     14989     14983     14986     14994     14995
     14983     14986     14994     14996     14983     14986     14994     14997
     14984     14983     14986     14987     14984     14983     14986     14988
     14984     14983     14986     14994     14985     14983     14986     14987
     14985     14983     14986     14988     14985     14983     14986     14994
     14986     14988     14989     14990     14986     14988     14989     14991
     14986     14994     14997     14998     14987     14986     14988     14989
     14987     14986     14994     14995     14987     14986     14994     14996
     14987     14986     14994     14997     14988     14986     14994     14995
     14988     14986     14994     14996     14988     14986     14994     14997
     14988     14989     14991     14992     14988     14989     14991     14993
     14988     14989     14991     15003     14989     14988     14986     14994
     14989     14991     15003     15004     14989     14991     15003     15005
     14989     14991     15003     15006     14990     14989     14991     14992
     14990     14989     14991     14993     14990     14989     14991     15003
     14991     15003     15006     15007     14991     15003     15006     15008
     14991     15003     15006     15009     14992     14991     15003     15004
     14992     14991     15003     15005     14992     14991     15003     15006
     14993     14991     15003     15004     14993     14991     15003     15005
     14993     14991     15003     15006     14994     14997     14998     14999
     14994     14997     14998     15000     14995     14994     14997     14998
     14996     14994     14997     14998     14997     14998     15000     15001
     14997     14998     15000     15002     14997     14998     15000     15050
     14998     15000     15050     15051     14998     15000     15050     15052
     14998     15000     15050     15053     14999     14998     15000     15001
     14999     14998     15000     15002     14999     14998     15000     15050
     15000     15050     15053     15054     15000     15050     15053     15055
     15000     15050     15053     15056     15001     15000     15050     15051
     15001     15000     15050     15052     15001     15000     15050     15053
     15002     15000     15050     15051     15002     15000     15050     15052
     15002     15000     15050     15053     15003     15006     15009     15010
     15003     15006     15009     15011     15003     15006     15009     15012
     15004     15003     15006     15007     15004     15003     15006     15008
     15004     15003     15006     15009     15005     15003     15006     15007
     15005     15003     15006     15008     15005     15003     15006     15009
     15006     15009     15012     15013     15006     15009     15012     15014
     15006     15009     15012     15015     15007     15006     15009     15010
     15007     15006     15009     15011     15007     15006     15009     15012
     15008     15006     15009     15010     15008     15006     15009     15011
     15008     15006     15009     15012     15009     15012     15015     15016
     15009     15012     15015     15017     15009     15012     15015     15018
     15010     15009     15012     15013     15010     15009     15012     15014
     15010     15009     15012     15015     15011     15009     15012     15013
     15011     15009     15012     15014     15011     15009     15012     15015
     15012     15015     15018     15019     15012     15015     15018     15020
     15012     15015     15018     15021     15013     15012     15015     15016
     15013     15012     15015     15017     15013     15012     15015     15018
     15014     15012     15015     15016     15014     15012     15015     15017
     15014     15012     15015     15018     15015     15018     15021     15022
     15015     15018     15021     15023     15016     15015     15018     15019
     15016     15015     15018     15020     15016     15015     15018     15021
     15017     15015     15018     15019     15017     15015     15018     15020
     15017     15015     15018     15021     15018     15021     15023     15024
     15018     15021     15023     15025     15019     15018     15021     15022
     15019     15018     15021     15023     15020     15018     15021     15022
     15020     15018     15021     15023     15021     15023     15025     15026
     15021     15023     15025     15027     15021     15023     15025     15028
     15022     15021     15023     15024     15022     15021     15023     15025
     15023     15025     15028     15029     15023     15025     15028     15030
     15023     15025     15028     15031     15024     15023     15025     15026
     15024     15023     15025     15027     15024     15023     15025     15028
     15025     15028     15031     15032     15025     15028     15031     15033
     15025     15028     15031     15034     15026     15025     15028     15029
     15026     15025     15028     15030     15026     15025     15028     15031
     15027     15025     15028     15029     15027     15025     15028     15030
     15027     15025     15028     15031     15028     15031     15034     15035
     15028     15031     15034     15036     15028     15031     15034     15037
     15029     15028     15031     15032     15029     15028     15031     15033
     15029     15028     15031     15034     15030     15028     15031     15032
     15030     15028     15031     15033     15030     15028     15031     15034
     15031     15034     15037     15038     15031     15034     15037     15039
     15031     15034     15037     15040     15032     15031     15034     15035
     15032     15031     15034     15036     15032     15031     15034     15037
     15033     15031     15034     15035     15033     15031     15034     15036
     15033     15031     15034     15037     15034     15037     15040     15041
     15034     15037     15040     15042     15034     15037     15040     15043
     15035     15034     15037     15038     15035     15034     15037     15039
     15035     15034     15037     15040     15036     15034     15037     15038
     15036     15034     15037     15039     15036     15034     15037     15040
     15037     15040     15043     15044     15037     15040     15043     15045
     15037     15040     15043     15046     15038     15037     15040     15041
     15038     15037     15040     15042     15038     15037     15040     15043
     15039     15037     15040     15041     15039     15037     15040     15042
     15039     15037     15040     15043     15040     15043     15046     15047
     15040     15043     15046     15048     15040     15043     15046     15049
     15041     15040     15043     15044     15041     15040     15043     15045
     15041     15040     15043     15046     15042     15040     15043     15044
     15042     15040     15043     15045     15042     15040     15043     15046
     15044     15043     15046     15047     15044     15043     15046     15048
     15044     15043     15046     15049     15045     15043     15046     15047
     15045     15043     15046     15048     15045     15043     15046     15049
     15050     15053     15056     15057     15050     15053     15056     15058
     15050     15053     15056     15059     15051     15050     15053     15054
     15051     15050     15053     15055     15051     15050     15053     15056
     15052     15050     15053     15054     15052     15050     15053     15055
     15052     15050     15053     15056     15053     15056     15059     15060
     15053     15056     15059     15061     15053     15056     15059     15062
     15054     15053     15056     15057     15054     15053     15056     15058
     15054     15053     15056     15059     15055     15053     15056     15057
     15055     15053     15056     15058     15055     15053     15056     15059
     15056     15059     15062     15063     15056     15059     15062     15064
     15056     15059     15062     15065     15057     15056     15059     15060
     15057     15056     15059     15061     15057     15056     15059     15062
     15058     15056     15059     15060     15058     15056     15059     15061
     15058     15056     15059     15062     15059     15062     15065     15066
     15059     15062     15065     15067     15059     15062     15065     15068
     15060     15059     15062     15063     15060     15059     15062     15064
     15060     15059     15062     15065     15061     15059     15062     15063
     15061     15059     15062     15064     15061     15059     15062     15065
     15062     15065     15068     15069     15062     15065     15068     15070
     15062     15065     15068     15071     15063     15062     15065     15066
     15063     15062     15065     15067     15063     15062     15065     15068
     15064     15062     15065     15066     15064     15062     15065     15067
     15064     15062     15065     15068     15065     15068     15071     15072
     15065     15068     15071     15073     15065     15068     15071     15074
     15066     15065     15068     15069     15066     15065     15068     15070
     15066     15065     15068     15071     15067     15065     15068     15069
     15067     15065     15068     15070     15067     15065     15068     15071
     15068     15071     15074     15075     15068     15071     15074     15076
     15068     15071     15074     15077     15069     15068     15071     15072
     15069     15068     15071     15073     15069     15068     15071     15074
     15070     15068     15071     15072     15070     15068     15071     15073
     15070     15068     15071     15074     15071     15074     15077     15078
     15071     15074     15077     15079     15071     15074     15077     15080
     15072     15071     15074     15075     15072     15071     15074     15076
     15072     15071     15074     15077     15073     15071     15074     15075
     15073     15071     15074     15076     15073     15071     15074     15077
     15074     15077     15080     15081     15074     15077     15080     15082
     15074     15077     15080     15083     15075     15074     15077     15078
     15075     15074     15077     15079     15075     15074     15077     15080
     15076     15074     15077     15078     15076     15074     15077     15079
     15076     15074     15077     15080     15077     15080     15083     15084
     15077     15080     15083     15085     15077     15080     15083     15086
     15078     15077     15080     15081     15078     15077     15080     15082
     15078     15077     15080     15083     15079     15077     15080     15081
     15079     15077     15080     15082     15079     15077     15080     15083
     15080     15083     15086     15087     15080     15083     15086     15088
     15080     15083     15086     15089     15081     15080     15083     15084
     15081     15080     15083     15085     15081     15080     15083     15086
     15082     15080     15083     15084     15082     15080     15083     15085
     15082     15080     15083     15086     15083     15086     15089     15090
     15083     15086     15089     15091     15083     15086     15089     15092
     15084     15083     15086     15087     15084     15083     15086     15088
     15084     15083     15086     15089     15085     15083     15086     15087
     15085     15083     15086     15088     15085     15083     15086     15089
     15087     15086     15089     15090     15087     15086     15089     15091
     15087     15086     15089     15092     15088     15086     15089     15090
     15088     15086     15089     15091     15088     15086     15089     15092
     15093     15094     15109     15110     15093     15094     15109     15111
     15093     15094     15109     15115     15094     15093     15097     15098
     15094     15093     15097     15099     15094     15093     15097     15100
     15094     15093     15101     15102     15094     15093     15101     15103
     15094     15093     15101     15104     15094     15093     15105     15106
     15094     15093     15105     15107     15094     15093     15105     15108
     15094     15109     15115     15112     15095     15094     15093     15097
     15095     15094     15093     15101     15095     15094     15093     15105
     15095     15094     15109     15110     15095     15094     15109     15111
     15095     15094     15109     15115     15096     15094     15093     15097
     15096     15094     15093     15101     15096     15094     15093     15105
     15096     15094     15109     15110     15096     15094     15109     15111
     15096     15094     15109     15115     15097     15093     15094     15109
     15097     15093     15101     15102     15097     15093     15101     15103
     15097     15093     15101     15104     15097     15093     15105     15106
     15097     15093     15105     15107     15097     15093     15105     15108
     15098     15097     15093     15101     15098     15097     15093     15105
     15099     15097     15093     15101     15099     15097     15093     15105
     15100     15097     15093     15101     15100     15097     15093     15105
     15101     15093     15094     15109     15101     15093     15105     15106
     15101     15093     15105     15107     15101     15093     15105     15108
     15102     15101     15093     15105     15103     15101     15093     15105
     15104     15101     15093     15105     15105     15093     15094     15109
     15109     15115     15112     15113     15109     15115     15112     15114
     15109     15115     15112     15116     15110     15109     15115     15112
     15111     15109     15115     15112     15112     15116     15117     15118
     15112     15116     15117     15119     15112     15116     15117     15120
     15113     15112     15116     15117     15114     15112     15116     15117
     15115     15112     15116     15117     15116     15117     15120     15121
     15116     15117     15120     15122     15116     15117     15120     15128
     15117     15120     15122     15123     15117     15120     15128     15129
     15117     15120     15128     15130     15117     15120     15128     15131
     15118     15117     15120     15121     15118     15117     15120     15122
     15118     15117     15120     15128     15119     15117     15120     15121
     15119     15117     15120     15122     15119     15117     15120     15128
     15120     15122     15123     15124     15120     15122     15123     15125
     15120     15128     15131     15132     15121     15120     15122     15123
     15121     15120     15128     15129     15121     15120     15128     15130
     15121     15120     15128     15131     15122     15120     15128     15129
     15122     15120     15128     15130     15122     15120     15128     15131
     15122     15123     15125     15126     15122     15123     15125     15127
     15122     15123     15125     15137     15123     15122     15120     15128
     15123     15125     15137     15138     15123     15125     15137     15139
     15123     15125     15137     15140     15124     15123     15125     15126
     15124     15123     15125     15127     15124     15123     15125     15137
     15125     15137     15140     15141     15125     15137     15140     15142
     15125     15137     15140     15143     15126     15125     15137     15138
     15126     15125     15137     15139     15126     15125     15137     15140
     15127     15125     15137     15138     15127     15125     15137     15139
     15127     15125     15137     15140     15128     15131     15132     15133
     15128     15131     15132     15134     15129     15128     15131     15132
     15130     15128     15131     15132     15131     15132     15134     15135
     15131     15132     15134     15136     15131     15132     15134     15184
     15132     15134     15184     15185     15132     15134     15184     15186
     15132     15134     15184     15187     15133     15132     15134     15135
     15133     15132     15134     15136     15133     15132     15134     15184
     15134     15184     15187     15188     15134     15184     15187     15189
     15134     15184     15187     15190     15135     15134     15184     15185
     15135     15134     15184     15186     15135     15134     15184     15187
     15136     15134     15184     15185     15136     15134     15184     15186
     15136     15134     15184     15187     15137     15140     15143     15144
     15137     15140     15143     15145     15137     15140     15143     15146
     15138     15137     15140     15141     15138     15137     15140     15142
     15138     15137     15140     15143     15139     15137     15140     15141
     15139     15137     15140     15142     15139     15137     15140     15143
     15140     15143     15146     15147     15140     15143     15146     15148
     15140     15143     15146     15149     15141     15140     15143     15144
     15141     15140     15143     15145     15141     15140     15143     15146
     15142     15140     15143     15144     15142     15140     15143     15145
     15142     15140     15143     15146     15143     15146     15149     15150
     15143     15146     15149     15151     15143     15146     15149     15152
     15144     15143     15146     15147     15144     15143     15146     15148
     15144     15143     15146     15149     15145     15143     15146     15147
     15145     15143     15146     15148     15145     15143     15146     15149
     15146     15149     15152     15153     15146     15149     15152     15154
     15146     15149     15152     15155     15147     15146     15149     15150
     15147     15146     15149     15151     15147     15146     15149     15152
     15148     15146     15149     15150     15148     15146     15149     15151
     15148     15146     15149     15152     15149     15152     15155     15156
     15149     15152     15155     15157     15150     15149     15152     15153
     15150     15149     15152     15154     15150     15149     15152     15155
     15151     15149     15152     15153     15151     15149     15152     15154
     15151     15149     15152     15155     15152     15155     15157     15158
     15152     15155     15157     15159     15153     15152     15155     15156
     15153     15152     15155     15157     15154     15152     15155     15156
     15154     15152     15155     15157     15155     15157     15159     15160
     15155     15157     15159     15161     15155     15157     15159     15162
     15156     15155     15157     15158     15156     15155     15157     15159
     15157     15159     15162     15163     15157     15159     15162     15164
     15157     15159     15162     15165     15158     15157     15159     15160
     15158     15157     15159     15161     15158     15157     15159     15162
     15159     15162     15165     15166     15159     15162     15165     15167
     15159     15162     15165     15168     15160     15159     15162     15163
     15160     15159     15162     15164     15160     15159     15162     15165
     15161     15159     15162     15163     15161     15159     15162     15164
     15161     15159     15162     15165     15162     15165     15168     15169
     15162     15165     15168     15170     15162     15165     15168     15171
     15163     15162     15165     15166     15163     15162     15165     15167
     15163     15162     15165     15168     15164     15162     15165     15166
     15164     15162     15165     15167     15164     15162     15165     15168
     15165     15168     15171     15172     15165     15168     15171     15173
     15165     15168     15171     15174     15166     15165     15168     15169
     15166     15165     15168     15170     15166     15165     15168     15171
     15167     15165     15168     15169     15167     15165     15168     15170
     15167     15165     15168     15171     15168     15171     15174     15175
     15168     15171     15174     15176     15168     15171     15174     15177
     15169     15168     15171     15172     15169     15168     15171     15173
     15169     15168     15171     15174     15170     15168     15171     15172
     15170     15168     15171     15173     15170     15168     15171     15174
     15171     15174     15177     15178     15171     15174     15177     15179
     15171     15174     15177     15180     15172     15171     15174     15175
     15172     15171     15174     15176     15172     15171     15174     15177
     15173     15171     15174     15175     15173     15171     15174     15176
     15173     15171     15174     15177     15174     15177     15180     15181
     15174     15177     15180     15182     15174     15177     15180     15183
     15175     15174     15177     15178     15175     15174     15177     15179
     15175     15174     15177     15180     15176     15174     15177     15178
     15176     15174     15177     15179     15176     15174     15177     15180
     15178     15177     15180     15181     15178     15177     15180     15182
     15178     15177     15180     15183     15179     15177     15180     15181
     15179     15177     15180     15182     15179     15177     15180     15183
     15184     15187     15190     15191     15184     15187     15190     15192
     15184     15187     15190     15193     15185     15184     15187     15188
     15185     15184     15187     15189     15185     15184     15187     15190
     15186     15184     15187     15188     15186     15184     15187     15189
     15186     15184     15187     15190     15187     15190     15193     15194
     15187     15190     15193     15195     15187     15190     15193     15196
     15188     15187     15190     15191     15188     15187     15190     15192
     15188     15187     15190     15193     15189     15187     15190     15191
     15189     15187     15190     15192     15189     15187     15190     15193
     15190     15193     15196     15197     15190     15193     15196     15198
     15190     15193     15196     15199     15191     15190     15193     15194
     15191     15190     15193     15195     15191     15190     15193     15196
     15192     15190     15193     15194     15192     15190     15193     15195
     15192     15190     15193     15196     15193     15196     15199     15200
     15193     15196     15199     15201     15193     15196     15199     15202
     15194     15193     15196     15197     15194     15193     15196     15198
     15194     15193     15196     15199     15195     15193     15196     15197
     15195     15193     15196     15198     15195     15193     15196     15199
     15196     15199     15202     15203     15196     15199     15202     15204
     15196     15199     15202     15205     15197     15196     15199     15200
     15197     15196     15199     15201     15197     15196     15199     15202
     15198     15196     15199     15200     15198     15196     15199     15201
     15198     15196     15199     15202     15199     15202     15205     15206
     15199     15202     15205     15207     15199     15202     15205     15208
     15200     15199     15202     15203     15200     15199     15202     15204
     15200     15199     15202     15205     15201     15199     15202     15203
     15201     15199     15202     15204     15201     15199     15202     15205
     15202     15205     15208     15209     15202     15205     15208     15210
     15202     15205     15208     15211     15203     15202     15205     15206
     15203     15202     15205     15207     15203     15202     15205     15208
     15204     15202     15205     15206     15204     15202     15205     15207
     15204     15202     15205     15208     15205     15208     15211     15212
     15205     15208     15211     15213     15205     15208     15211     15214
     15206     15205     15208     15209     15206     15205     15208     15210
     15206     15205     15208     15211     15207     15205     15208     15209
     15207     15205     15208     15210     15207     15205     15208     15211
     15208     15211     15214     15215     15208     15211     15214     15216
     15208     15211     15214     15217     15209     15208     15211     15212
     15209     15208     15211     15213     15209     15208     15211     15214
     15210     15208     15211     15212     15210     15208     15211     15213
     15210     15208     15211     15214     15211     15214     15217     15218
     15211     15214     15217     15219     15211     15214     15217     15220
     15212     15211     15214     15215     15212     15211     15214     15216
     15212     15211     15214     15217     15213     15211     15214     15215
     15213     15211     15214     15216     15213     15211     15214     15217
     15214     15217     15220     15221     15214     15217     15220     15222
     15214     15217     15220     15223     15215     15214     15217     15218
     15215     15214     15217     15219     15215     15214     15217     15220
     15216     15214     15217     15218     15216     15214     15217     15219
     15216     15214     15217     15220     15217     15220     15223     15224
     15217     15220     15223     15225     15217     15220     15223     15226
     15218     15217     15220     15221     15218     15217     15220     15222
     15218     15217     15220     15223     15219     15217     15220     15221
     15219     15217     15220     15222     15219     15217     15220     15223
     15221     15220     15223     15224     15221     15220     15223     15225
     15221     15220     15223     15226     15222     15220     15223     15224
     15222     15220     15223     15225     15222     15220     15223     15226
     15227     15228     15243     15244     15227     15228     15243     15245
     15227     15228     15243     15249     15228     15227     15231     15232
     15228     15227     15231     15233     15228     15227     15231     15234
     15228     15227     15235     15236     15228     15227     15235     15237
     15228     15227     15235     15238     15228     15227     15239     15240
     15228     15227     15239     15241     15228     15227     15239     15242
     15228     15243     15249     15246     15229     15228     15227     15231
     15229     15228     15227     15235     15229     15228     15227     15239
     15229     15228     15243     15244     15229     15228     15243     15245
     15229     15228     15243     15249     15230     15228     15227     15231
     15230     15228     15227     15235     15230     15228     15227     15239
     15230     15228     15243     15244     15230     15228     15243     15245
     15230     15228     15243     15249     15231     15227     15228     15243
     15231     15227     15235     15236     15231     15227     15235     15237
     15231     15227     15235     15238     15231     15227     15239     15240
     15231     15227     15239     15241     15231     15227     15239     15242
     15232     15231     15227     15235     15232     15231     15227     15239
     15233     15231     15227     15235     15233     15231     15227     15239
     15234     15231     15227     15235     15234     15231     15227     15239
     15235     15227     15228     15243     15235     15227     15239     15240
     15235     15227     15239     15241     15235     15227     15239     15242
     15236     15235     15227     15239     15237     15235     15227     15239
     15238     15235     15227     15239     15239     15227     15228     15243
     15243     15249     15246     15247     15243     15249     15246     15248
     15243     15249     15246     15250     15244     15243     15249     15246
     15245     15243     15249     15246     15246     15250     15251     15252
     15246     15250     15251     15253     15246     15250     15251     15254
     15247     15246     15250     15251     15248     15246     15250     15251
     15249     15246     15250     15251     15250     15251     15254     15255
     15250     15251     15254     15256     15250     15251     15254     15262
     15251     15254     15256     15257     15251     15254     15262     15263
     15251     15254     15262     15264     15251     15254     15262     15265
     15252     15251     15254     15255     15252     15251     15254     15256
     15252     15251     15254     15262     15253     15251     15254     15255
     15253     15251     15254     15256     15253     15251     15254     15262
     15254     15256     15257     15258     15254     15256     15257     15259
     15254     15262     15265     15266     15255     15254     15256     15257
     15255     15254     15262     15263     15255     15254     15262     15264
     15255     15254     15262     15265     15256     15254     15262     15263
     15256     15254     15262     15264     15256     15254     15262     15265
     15256     15257     15259     15260     15256     15257     15259     15261
     15256     15257     15259     15271     15257     15256     15254     15262
     15257     15259     15271     15272     15257     15259     15271     15273
     15257     15259     15271     15274     15258     15257     15259     15260
     15258     15257     15259     15261     15258     15257     15259     15271
     15259     15271     15274     15275     15259     15271     15274     15276
     15259     15271     15274     15277     15260     15259     15271     15272
     15260     15259     15271     15273     15260     15259     15271     15274
     15261     15259     15271     15272     15261     15259     15271     15273
     15261     15259     15271     15274     15262     15265     15266     15267
     15262     15265     15266     15268     15263     15262     15265     15266
     15264     15262     15265     15266     15265     15266     15268     15269
     15265     15266     15268     15270     15265     15266     15268     15318
     15266     15268     15318     15319     15266     15268     15318     15320
     15266     15268     15318     15321     15267     15266     15268     15269
     15267     15266     15268     15270     15267     15266     15268     15318
     15268     15318     15321     15322     15268     15318     15321     15323
     15268     15318     15321     15324     15269     15268     15318     15319
     15269     15268     15318     15320     15269     15268     15318     15321
     15270     15268     15318     15319     15270     15268     15318     15320
     15270     15268     15318     15321     15271     15274     15277     15278
     15271     15274     15277     15279     15271     15274     15277     15280
     15272     15271     15274     15275     15272     15271     15274     15276
     15272     15271     15274     15277     15273     15271     15274     15275
     15273     15271     15274     15276     15273     15271     15274     15277
     15274     15277     15280     15281     15274     15277     15280     15282
     15274     15277     15280     15283     15275     15274     15277     15278
     15275     15274     15277     15279     15275     15274     15277     15280
     15276     15274     15277     15278     15276     15274     15277     15279
     15276     15274     15277     15280     15277     15280     15283     15284
     15277     15280     15283     15285     15277     15280     15283     15286
     15278     15277     15280     15281     15278     15277     15280     15282
     15278     15277     15280     15283     15279     15277     15280     15281
     15279     15277     15280     15282     15279     15277     15280     15283
     15280     15283     15286     15287     15280     15283     15286     15288
     15280     15283     15286     15289     15281     15280     15283     15284
     15281     15280     15283     15285     15281     15280     15283     15286
     15282     15280     15283     15284     15282     15280     15283     15285
     15282     15280     15283     15286     15283     15286     15289     15290
     15283     15286     15289     15291     15284     15283     15286     15287
     15284     15283     15286     15288     15284     15283     15286     15289
     15285     15283     15286     15287     15285     15283     15286     15288
     15285     15283     15286     15289     15286     15289     15291     15292
     15286     15289     15291     15293     15287     15286     15289     15290
     15287     15286     15289     15291     15288     15286     15289     15290
     15288     15286     15289     15291     15289     15291     15293     15294
     15289     15291     15293     15295     15289     15291     15293     15296
     15290     15289     15291     15292     15290     15289     15291     15293
     15291     15293     15296     15297     15291     15293     15296     15298
     15291     15293     15296     15299     15292     15291     15293     15294
     15292     15291     15293     15295     15292     15291     15293     15296
     15293     15296     15299     15300     15293     15296     15299     15301
     15293     15296     15299     15302     15294     15293     15296     15297
     15294     15293     15296     15298     15294     15293     15296     15299
     15295     15293     15296     15297     15295     15293     15296     15298
     15295     15293     15296     15299     15296     15299     15302     15303
     15296     15299     15302     15304     15296     15299     15302     15305
     15297     15296     15299     15300     15297     15296     15299     15301
     15297     15296     15299     15302     15298     15296     15299     15300
     15298     15296     15299     15301     15298     15296     15299     15302
     15299     15302     15305     15306     15299     15302     15305     15307
     15299     15302     15305     15308     15300     15299     15302     15303
     15300     15299     15302     15304     15300     15299     15302     15305
     15301     15299     15302     15303     15301     15299     15302     15304
     15301     15299     15302     15305     15302     15305     15308     15309
     15302     15305     15308     15310     15302     15305     15308     15311
     15303     15302     15305     15306     15303     15302     15305     15307
     15303     15302     15305     15308     15304     15302     15305     15306
     15304     15302     15305     15307     15304     15302     15305     15308
     15305     15308     15311     15312     15305     15308     15311     15313
     15305     15308     15311     15314     15306     15305     15308     15309
     15306     15305     15308     15310     15306     15305     15308     15311
     15307     15305     15308     15309     15307     15305     15308     15310
     15307     15305     15308     15311     15308     15311     15314     15315
     15308     15311     15314     15316     15308     15311     15314     15317
     15309     15308     15311     15312     15309     15308     15311     15313
     15309     15308     15311     15314     15310     15308     15311     15312
     15310     15308     15311     15313     15310     15308     15311     15314
     15312     15311     15314     15315     15312     15311     15314     15316
     15312     15311     15314     15317     15313     15311     15314     15315
     15313     15311     15314     15316     15313     15311     15314     15317
     15318     15321     15324     15325     15318     15321     15324     15326
     15318     15321     15324     15327     15319     15318     15321     15322
     15319     15318     15321     15323     15319     15318     15321     15324
     15320     15318     15321     15322     15320     15318     15321     15323
     15320     15318     15321     15324     15321     15324     15327     15328
     15321     15324     15327     15329     15321     15324     15327     15330
     15322     15321     15324     15325     15322     15321     15324     15326
     15322     15321     15324     15327     15323     15321     15324     15325
     15323     15321     15324     15326     15323     15321     15324     15327
     15324     15327     15330     15331     15324     15327     15330     15332
     15324     15327     15330     15333     15325     15324     15327     15328
     15325     15324     15327     15329     15325     15324     15327     15330
     15326     15324     15327     15328     15326     15324     15327     15329
     15326     15324     15327     15330     15327     15330     15333     15334
     15327     15330     15333     15335     15327     15330     15333     15336
     15328     15327     15330     15331     15328     15327     15330     15332
     15328     15327     15330     15333     15329     15327     15330     15331
     15329     15327     15330     15332     15329     15327     15330     15333
     15330     15333     15336     15337     15330     15333     15336     15338
     15330     15333     15336     15339     15331     15330     15333     15334
     15331     15330     15333     15335     15331     15330     15333     15336
     15332     15330     15333     15334     15332     15330     15333     15335
     15332     15330     15333     15336     15333     15336     15339     15340
     15333     15336     15339     15341     15333     15336     15339     15342
     15334     15333     15336     15337     15334     15333     15336     15338
     15334     15333     15336     15339     15335     15333     15336     15337
     15335     15333     15336     15338     15335     15333     15336     15339
     15336     15339     15342     15343     15336     15339     15342     15344
     15336     15339     15342     15345     15337     15336     15339     15340
     15337     15336     15339     15341     15337     15336     15339     15342
     15338     15336     15339     15340     15338     15336     15339     15341
     15338     15336     15339     15342     15339     15342     15345     15346
     15339     15342     15345     15347     15339     15342     15345     15348
     15340     15339     15342     15343     15340     15339     15342     15344
     15340     15339     15342     15345     15341     15339     15342     15343
     15341     15339     15342     15344     15341     15339     15342     15345
     15342     15345     15348     15349     15342     15345     15348     15350
     15342     15345     15348     15351     15343     15342     15345     15346
     15343     15342     15345     15347     15343     15342     15345     15348
     15344     15342     15345     15346     15344     15342     15345     15347
     15344     15342     15345     15348     15345     15348     15351     15352
     15345     15348     15351     15353     15345     15348     15351     15354
     15346     15345     15348     15349     15346     15345     15348     15350
     15346     15345     15348     15351     15347     15345     15348     15349
     15347     15345     15348     15350     15347     15345     15348     15351
     15348     15351     15354     15355     15348     15351     15354     15356
     15348     15351     15354     15357     15349     15348     15351     15352
     15349     15348     15351     15353     15349     15348     15351     15354
     15350     15348     15351     15352     15350     15348     15351     15353
     15350     15348     15351     15354     15351     15354     15357     15358
     15351     15354     15357     15359     15351     15354     15357     15360
     15352     15351     15354     15355     15352     15351     15354     15356
     15352     15351     15354     15357     15353     15351     15354     15355
     15353     15351     15354     15356     15353     15351     15354     15357
     15355     15354     15357     15358     15355     15354     15357     15359
     15355     15354     15357     15360     15356     15354     15357     15358
     15356     15354     15357     15359     15356     15354     15357     15360
     15361     15365     15367     15368     15361     15365     15367     15369
     15361     15365     15370     15371     15361     15365     15370     15372
     15361     15365     15370     15376     15362     15361     15365     15366
     15362     15361     15365     15367     15362     15361     15365     15370
     15363     15361     15365     15366     15363     15361     15365     15367
     15363     15361     15365     15370     15364     15361     15365     15366
     15364     15361     15365     15367     15364     15361     15365     15370
     15365     15370     15376     15373     15366     15365     15367     15368
     15366     15365     15367     15369     15366     15365     15370     15371
     15366     15365     15370     15372     15366     15365     15370     15376
     15367     15365     15370     15371     15367     15365     15370     15372
     15367     15365     15370     15376     15368     15367     15365     15370
     15369     15367     15365     15370     15370     15376     15373     15374
     15370     15376     15373     15375     15370     15376     15373     15377
     15371     15370     15376     15373     15372     15370     15376     15373
     15373     15377     15378     15379     15373     15377     15378     15380
     15373     15377     15378     15381     15374     15373     15377     15378
     15375     15373     15377     15378     15376     15373     15377     15378
     15377     15378     15381     15382     15377     15378     15381     15383
     15377     15378     15381     15389     15378     15381     15383     15384
     15378     15381     15389     15390     15378     15381     15389     15391
     15378     15381     15389     15392     15379     15378     15381     15382
     15379     15378     15381     15383     15379     15378     15381     15389
     15380     15378     15381     15382     15380     15378     15381     15383
     15380     15378     15381     15389     15381     15383     15384     15385
     15381     15383     15384     15386     15381     15389     15392     15393
     15382     15381     15383     15384     15382     15381     15389     15390
     15382     15381     15389     15391     15382     15381     15389     15392
     15383     15381     15389     15390     15383     15381     15389     15391
     15383     15381     15389     15392     15383     15384     15386     15387
     15383     15384     15386     15388     15383     15384     15386     15398
     15384     15383     15381     15389     15384     15386     15398     15399
     15384     15386     15398     15400     15384     15386     15398     15401
     15385     15384     15386     15387     15385     15384     15386     15388
     15385     15384     15386     15398     15386     15398     15401     15402
     15386     15398     15401     15403     15386     15398     15401     15404
     15387     15386     15398     15399     15387     15386     15398     15400
     15387     15386     15398     15401     15388     15386     15398     15399
     15388     15386     15398     15400     15388     15386     15398     15401
     15389     15392     15393     15394     15389     15392     15393     15395
     15390     15389     15392     15393     15391     15389     15392     15393
     15392     15393     15395     15396     15392     15393     15395     15397
     15392     15393     15395     15445     15393     15395     15445     15446
     15393     15395     15445     15447     15393     15395     15445     15448
     15394     15393     15395     15396     15394     15393     15395     15397
     15394     15393     15395     15445     15395     15445     15448     15449
     15395     15445     15448     15450     15395     15445     15448     15451
     15396     15395     15445     15446     15396     15395     15445     15447
     15396     15395     15445     15448     15397     15395     15445     15446
     15397     15395     15445     15447     15397     15395     15445     15448
     15398     15401     15404     15405     15398     15401     15404     15406
     15398     15401     15404     15407     15399     15398     15401     15402
     15399     15398     15401     15403     15399     15398     15401     15404
     15400     15398     15401     15402     15400     15398     15401     15403
     15400     15398     15401     15404     15401     15404     15407     15408
     15401     15404     15407     15409     15401     15404     15407     15410
     15402     15401     15404     15405     15402     15401     15404     15406
     15402     15401     15404     15407     15403     15401     15404     15405
     15403     15401     15404     15406     15403     15401     15404     15407
     15404     15407     15410     15411     15404     15407     15410     15412
     15404     15407     15410     15413     15405     15404     15407     15408
     15405     15404     15407     15409     15405     15404     15407     15410
     15406     15404     15407     15408     15406     15404     15407     15409
     15406     15404     15407     15410     15407     15410     15413     15414
     15407     15410     15413     15415     15407     15410     15413     15416
     15408     15407     15410     15411     15408     15407     15410     15412
     15408     15407     15410     15413     15409     15407     15410     15411
     15409     15407     15410     15412     15409     15407     15410     15413
     15410     15413     15416     15417     15410     15413     15416     15418
     15411     15410     15413     15414     15411     15410     15413     15415
     15411     15410     15413     15416     15412     15410     15413     15414
     15412     15410     15413     15415     15412     15410     15413     15416
     15413     15416     15418     15419     15413     15416     15418     15420
     15414     15413     15416     15417     15414     15413     15416     15418
     15415     15413     15416     15417     15415     15413     15416     15418
     15416     15418     15420     15421     15416     15418     15420     15422
     15416     15418     15420     15423     15417     15416     15418     15419
     15417     15416     15418     15420     15418     15420     15423     15424
     15418     15420     15423     15425     15418     15420     15423     15426
     15419     15418     15420     15421     15419     15418     15420     15422
     15419     15418     15420     15423     15420     15423     15426     15427
     15420     15423     15426     15428     15420     15423     15426     15429
     15421     15420     15423     15424     15421     15420     15423     15425
     15421     15420     15423     15426     15422     15420     15423     15424
     15422     15420     15423     15425     15422     15420     15423     15426
     15423     15426     15429     15430     15423     15426     15429     15431
     15423     15426     15429     15432     15424     15423     15426     15427
     15424     15423     15426     15428     15424     15423     15426     15429
     15425     15423     15426     15427     15425     15423     15426     15428
     15425     15423     15426     15429     15426     15429     15432     15433
     15426     15429     15432     15434     15426     15429     15432     15435
     15427     15426     15429     15430     15427     15426     15429     15431
     15427     15426     15429     15432     15428     15426     15429     15430
     15428     15426     15429     15431     15428     15426     15429     15432
     15429     15432     15435     15436     15429     15432     15435     15437
     15429     15432     15435     15438     15430     15429     15432     15433
     15430     15429     15432     15434     15430     15429     15432     15435
     15431     15429     15432     15433     15431     15429     15432     15434
     15431     15429     15432     15435     15432     15435     15438     15439
     15432     15435     15438     15440     15432     15435     15438     15441
     15433     15432     15435     15436     15433     15432     15435     15437
     15433     15432     15435     15438     15434     15432     15435     15436
     15434     15432     15435     15437     15434     15432     15435     15438
     15435     15438     15441     15442     15435     15438     15441     15443
     15435     15438     15441     15444     15436     15435     15438     15439
     15436     15435     15438     15440     15436     15435     15438     15441
     15437     15435     15438     15439     15437     15435     15438     15440
     15437     15435     15438     15441     15439     15438     15441     15442
     15439     15438     15441     15443     15439     15438     15441     15444
     15440     15438     15441     15442     15440     15438     15441     15443
     15440     15438     15441     15444     15445     15448     15451     15452
     15445     15448     15451     15453     15445     15448     15451     15454
     15446     15445     15448     15449     15446     15445     15448     15450
     15446     15445     15448     15451     15447     15445     15448     15449
     15447     15445     15448     15450     15447     15445     15448     15451
     15448     15451     15454     15455     15448     15451     15454     15456
     15448     15451     15454     15457     15449     15448     15451     15452
     15449     15448     15451     15453     15449     15448     15451     15454
     15450     15448     15451     15452     15450     15448     15451     15453
     15450     15448     15451     15454     15451     15454     15457     15458
     15451     15454     15457     15459     15451     15454     15457     15460
     15452     15451     15454     15455     15452     15451     15454     15456
     15452     15451     15454     15457     15453     15451     15454     15455
     15453     15451     15454     15456     15453     15451     15454     15457
     15454     15457     15460     15461     15454     15457     15460     15462
     15454     15457     15460     15463     15455     15454     15457     15458
     15455     15454     15457     15459     15455     15454     15457     15460
     15456     15454     15457     15458     15456     15454     15457     15459
     15456     15454     15457     15460     15457     15460     15463     15464
     15457     15460     15463     15465     15457     15460     15463     15466
     15458     15457     15460     15461     15458     15457     15460     15462
     15458     15457     15460     15463     15459     15457     15460     15461
     15459     15457     15460     15462     15459     15457     15460     15463
     15460     15463     15466     15467     15460     15463     15466     15468
     15460     15463     15466     15469     15461     15460     15463     15464
     15461     15460     15463     15465     15461     15460     15463     15466
     15462     15460     15463     15464     15462     15460     15463     15465
     15462     15460     15463     15466     15463     15466     15469     15470
     15463     15466     15469     15471     15463     15466     15469     15472
     15464     15463     15466     15467     15464     15463     15466     15468
     15464     15463     15466     15469     15465     15463     15466     15467
     15465     15463     15466     15468     15465     15463     15466     15469
     15466     15469     15472     15473     15466     15469     15472     15474
     15466     15469     15472     15475     15467     15466     15469     15470
     15467     15466     15469     15471     15467     15466     15469     15472
     15468     15466     15469     15470     15468     15466     15469     15471
     15468     15466     15469     15472     15469     15472     15475     15476
     15469     15472     15475     15477     15469     15472     15475     15478
     15470     15469     15472     15473     15470     15469     15472     15474
     15470     15469     15472     15475     15471     15469     15472     15473
     15471     15469     15472     15474     15471     15469     15472     15475
     15472     15475     15478     15479     15472     15475     15478     15480
     15472     15475     15478     15481     15473     15472     15475     15476
     15473     15472     15475     15477     15473     15472     15475     15478
     15474     15472     15475     15476     15474     15472     15475     15477
     15474     15472     15475     15478     15475     15478     15481     15482
     15475     15478     15481     15483     15475     15478     15481     15484
     15476     15475     15478     15479     15476     15475     15478     15480
     15476     15475     15478     15481     15477     15475     15478     15479
     15477     15475     15478     15480     15477     15475     15478     15481
     15478     15481     15484     15485     15478     15481     15484     15486
     15478     15481     15484     15487     15479     15478     15481     15482
     15479     15478     15481     15483     15479     15478     15481     15484
     15480     15478     15481     15482     15480     15478     15481     15483
     15480     15478     15481     15484     15482     15481     15484     15485
     15482     15481     15484     15486     15482     15481     15484     15487
     15483     15481     15484     15485     15483     15481     15484     15486
     15483     15481     15484     15487     15488     15492     15494     15495
     15488     15492     15494     15496     15488     15492     15497     15498
     15488     15492     15497     15499     15488     15492     15497     15503
     15489     15488     15492     15493     15489     15488     15492     15494
     15489     15488     15492     15497     15490     15488     15492     15493
     15490     15488     15492     15494     15490     15488     15492     15497
     15491     15488     15492     15493     15491     15488     15492     15494
     15491     15488     15492     15497     15492     15497     15503     15500
     15493     15492     15494     15495     15493     15492     15494     15496
     15493     15492     15497     15498     15493     15492     15497     15499
     15493     15492     15497     15503     15494     15492     15497     15498
     15494     15492     15497     15499     15494     15492     15497     15503
     15495     15494     15492     15497     15496     15494     15492     15497
     15497     15503     15500     15501     15497     15503     15500     15502
     15497     15503     15500     15504     15498     15497     15503     15500
     15499     15497     15503     15500     15500     15504     15505     15506
     15500     15504     15505     15507     15500     15504     15505     15508
     15501     15500     15504     15505     15502     15500     15504     15505
     15503     15500     15504     15505     15504     15505     15508     15509
     15504     15505     15508     15510     15504     15505     15508     15516
     15505     15508     15510     15511     15505     15508     15516     15517
     15505     15508     15516     15518     15505     15508     15516     15519
     15506     15505     15508     15509     15506     15505     15508     15510
     15506     15505     15508     15516     15507     15505     15508     15509
     15507     15505     15508     15510     15507     15505     15508     15516
     15508     15510     15511     15512     15508     15510     15511     15513
     15508     15516     15519     15520     15509     15508     15510     15511
     15509     15508     15516     15517     15509     15508     15516     15518
     15509     15508     15516     15519     15510     15508     15516     15517
     15510     15508     15516     15518     15510     15508     15516     15519
     15510     15511     15513     15514     15510     15511     15513     15515
     15510     15511     15513     15525     15511     15510     15508     15516
     15511     15513     15525     15526     15511     15513     15525     15527
     15511     15513     15525     15528     15512     15511     15513     15514
     15512     15511     15513     15515     15512     15511     15513     15525
     15513     15525     15528     15529     15513     15525     15528     15530
     15513     15525     15528     15531     15514     15513     15525     15526
     15514     15513     15525     15527     15514     15513     15525     15528
     15515     15513     15525     15526     15515     15513     15525     15527
     15515     15513     15525     15528     15516     15519     15520     15521
     15516     15519     15520     15522     15517     15516     15519     15520
     15518     15516     15519     15520     15519     15520     15522     15523
     15519     15520     15522     15524     15519     15520     15522     15572
     15520     15522     15572     15573     15520     15522     15572     15574
     15520     15522     15572     15575     15521     15520     15522     15523
     15521     15520     15522     15524     15521     15520     15522     15572
     15522     15572     15575     15576     15522     15572     15575     15577
     15522     15572     15575     15578     15523     15522     15572     15573
     15523     15522     15572     15574     15523     15522     15572     15575
     15524     15522     15572     15573     15524     15522     15572     15574
     15524     15522     15572     15575     15525     15528     15531     15532
     15525     15528     15531     15533     15525     15528     15531     15534
     15526     15525     15528     15529     15526     15525     15528     15530
     15526     15525     15528     15531     15527     15525     15528     15529
     15527     15525     15528     15530     15527     15525     15528     15531
     15528     15531     15534     15535     15528     15531     15534     15536
     15528     15531     15534     15537     15529     15528     15531     15532
     15529     15528     15531     15533     15529     15528     15531     15534
     15530     15528     15531     15532     15530     15528     15531     15533
     15530     15528     15531     15534     15531     15534     15537     15538
     15531     15534     15537     15539     15531     15534     15537     15540
     15532     15531     15534     15535     15532     15531     15534     15536
     15532     15531     15534     15537     15533     15531     15534     15535
     15533     15531     15534     15536     15533     15531     15534     15537
     15534     15537     15540     15541     15534     15537     15540     15542
     15534     15537     15540     15543     15535     15534     15537     15538
     15535     15534     15537     15539     15535     15534     15537     15540
     15536     15534     15537     15538     15536     15534     15537     15539
     15536     15534     15537     15540     15537     15540     15543     15544
     15537     15540     15543     15545     15538     15537     15540     15541
     15538     15537     15540     15542     15538     15537     15540     15543
     15539     15537     15540     15541     15539     15537     15540     15542
     15539     15537     15540     15543     15540     15543     15545     15546
     15540     15543     15545     15547     15541     15540     15543     15544
     15541     15540     15543     15545     15542     15540     15543     15544
     15542     15540     15543     15545     15543     15545     15547     15548
     15543     15545     15547     15549     15543     15545     15547     15550
     15544     15543     15545     15546     15544     15543     15545     15547
     15545     15547     15550     15551     15545     15547     15550     15552
     15545     15547     15550     15553     15546     15545     15547     15548
     15546     15545     15547     15549     15546     15545     15547     15550
     15547     15550     15553     15554     15547     15550     15553     15555
     15547     15550     15553     15556     15548     15547     15550     15551
     15548     15547     15550     15552     15548     15547     15550     15553
     15549     15547     15550     15551     15549     15547     15550     15552
     15549     15547     15550     15553     15550     15553     15556     15557
     15550     15553     15556     15558     15550     15553     15556     15559
     15551     15550     15553     15554     15551     15550     15553     15555
     15551     15550     15553     15556     15552     15550     15553     15554
     15552     15550     15553     15555     15552     15550     15553     15556
     15553     15556     15559     15560     15553     15556     15559     15561
     15553     15556     15559     15562     15554     15553     15556     15557
     15554     15553     15556     15558     15554     15553     15556     15559
     15555     15553     15556     15557     15555     15553     15556     15558
     15555     15553     15556     15559     15556     15559     15562     15563
     15556     15559     15562     15564     15556     15559     15562     15565
     15557     15556     15559     15560     15557     15556     15559     15561
     15557     15556     15559     15562     15558     15556     15559     15560
     15558     15556     15559     15561     15558     15556     15559     15562
     15559     15562     15565     15566     15559     15562     15565     15567
     15559     15562     15565     15568     15560     15559     15562     15563
     15560     15559     15562     15564     15560     15559     15562     15565
     15561     15559     15562     15563     15561     15559     15562     15564
     15561     15559     15562     15565     15562     15565     15568     15569
     15562     15565     15568     15570     15562     15565     15568     15571
     15563     15562     15565     15566     15563     15562     15565     15567
     15563     15562     15565     15568     15564     15562     15565     15566
     15564     15562     15565     15567     15564     15562     15565     15568
     15566     15565     15568     15569     15566     15565     15568     15570
     15566     15565     15568     15571     15567     15565     15568     15569
     15567     15565     15568     15570     15567     15565     15568     15571
     15572     15575     15578     15579     15572     15575     15578     15580
     15572     15575     15578     15581     15573     15572     15575     15576
     15573     15572     15575     15577     15573     15572     15575     15578
     15574     15572     15575     15576     15574     15572     15575     15577
     15574     15572     15575     15578     15575     15578     15581     15582
     15575     15578     15581     15583     15575     15578     15581     15584
     15576     15575     15578     15579     15576     15575     15578     15580
     15576     15575     15578     15581     15577     15575     15578     15579
     15577     15575     15578     15580     15577     15575     15578     15581
     15578     15581     15584     15585     15578     15581     15584     15586
     15578     15581     15584     15587     15579     15578     15581     15582
     15579     15578     15581     15583     15579     15578     15581     15584
     15580     15578     15581     15582     15580     15578     15581     15583
     15580     15578     15581     15584     15581     15584     15587     15588
     15581     15584     15587     15589     15581     15584     15587     15590
     15582     15581     15584     15585     15582     15581     15584     15586
     15582     15581     15584     15587     15583     15581     15584     15585
     15583     15581     15584     15586     15583     15581     15584     15587
     15584     15587     15590     15591     15584     15587     15590     15592
     15584     15587     15590     15593     15585     15584     15587     15588
     15585     15584     15587     15589     15585     15584     15587     15590
     15586     15584     15587     15588     15586     15584     15587     15589
     15586     15584     15587     15590     15587     15590     15593     15594
     15587     15590     15593     15595     15587     15590     15593     15596
     15588     15587     15590     15591     15588     15587     15590     15592
     15588     15587     15590     15593     15589     15587     15590     15591
     15589     15587     15590     15592     15589     15587     15590     15593
     15590     15593     15596     15597     15590     15593     15596     15598
     15590     15593     15596     15599     15591     15590     15593     15594
     15591     15590     15593     15595     15591     15590     15593     15596
     15592     15590     15593     15594     15592     15590     15593     15595
     15592     15590     15593     15596     15593     15596     15599     15600
     15593     15596     15599     15601     15593     15596     15599     15602
     15594     15593     15596     15597     15594     15593     15596     15598
     15594     15593     15596     15599     15595     15593     15596     15597
     15595     15593     15596     15598     15595     15593     15596     15599
     15596     15599     15602     15603     15596     15599     15602     15604
     15596     15599     15602     15605     15597     15596     15599     15600
     15597     15596     15599     15601     15597     15596     15599     15602
     15598     15596     15599     15600     15598     15596     15599     15601
     15598     15596     15599     15602     15599     15602     15605     15606
     15599     15602     15605     15607     15599     15602     15605     15608
     15600     15599     15602     15603     15600     15599     15602     15604
     15600     15599     15602     15605     15601     15599     15602     15603
     15601     15599     15602     15604     15601     15599     15602     15605
     15602     15605     15608     15609     15602     15605     15608     15610
     15602     15605     15608     15611     15603     15602     15605     15606
     15603     15602     15605     15607     15603     15602     15605     15608
     15604     15602     15605     15606     15604     15602     15605     15607
     15604     15602     15605     15608     15605     15608     15611     15612
     15605     15608     15611     15613     15605     15608     15611     15614
     15606     15605     15608     15609     15606     15605     15608     15610
     15606     15605     15608     15611     15607     15605     15608     15609
     15607     15605     15608     15610     15607     15605     15608     15611
     15609     15608     15611     15612     15609     15608     15611     15613
     15609     15608     15611     15614     15610     15608     15611     15612
     15610     15608     15611     15613     15610     15608     15611     15614
     15615     15616     15631     15632     15615     15616     15631     15633
     15615     15616     15631     15637     15616     15615     15619     15620
     15616     15615     15619     15621     15616     15615     15619     15622
     15616     15615     15623     15624     15616     15615     15623     15625
     15616     15615     15623     15626     15616     15615     15627     15628
     15616     15615     15627     15629     15616     15615     15627     15630
     15616     15631     15637     15634     15617     15616     15615     15619
     15617     15616     15615     15623     15617     15616     15615     15627
     15617     15616     15631     15632     15617     15616     15631     15633
     15617     15616     15631     15637     15618     15616     15615     15619
     15618     15616     15615     15623     15618     15616     15615     15627
     15618     15616     15631     15632     15618     15616     15631     15633
     15618     15616     15631     15637     15619     15615     15616     15631
     15619     15615     15623     15624     15619     15615     15623     15625
     15619     15615     15623     15626     15619     15615     15627     15628
     15619     15615     15627     15629     15619     15615     15627     15630
     15620     15619     15615     15623     15620     15619     15615     15627
     15621     15619     15615     15623     15621     15619     15615     15627
     15622     15619     15615     15623     15622     15619     15615     15627
     15623     15615     15616     15631     15623     15615     15627     15628
     15623     15615     15627     15629     15623     15615     15627     15630
     15624     15623     15615     15627     15625     15623     15615     15627
     15626     15623     15615     15627     15627     15615     15616     15631
     15631     15637     15634     15635     15631     15637     15634     15636
     15631     15637     15634     15638     15632     15631     15637     15634
     15633     15631     15637     15634     15634     15638     15639     15640
     15634     15638     15639     15641     15634     15638     15639     15642
     15635     15634     15638     15639     15636     15634     15638     15639
     15637     15634     15638     15639     15638     15639     15642     15643
     15638     15639     15642     15644     15638     15639     15642     15650
     15639     15642     15644     15645     15639     15642     15650     15651
     15639     15642     15650     15652     15639     15642     15650     15653
     15640     15639     15642     15643     15640     15639     15642     15644
     15640     15639     15642     15650     15641     15639     15642     15643
     15641     15639     15642     15644     15641     15639     15642     15650
     15642     15644     15645     15646     15642     15644     15645     15647
     15642     15650     15653     15654     15643     15642     15644     15645
     15643     15642     15650     15651     15643     15642     15650     15652
     15643     15642     15650     15653     15644     15642     15650     15651
     15644     15642     15650     15652     15644     15642     15650     15653
     15644     15645     15647     15648     15644     15645     15647     15649
     15644     15645     15647     15659     15645     15644     15642     15650
     15645     15647     15659     15660     15645     15647     15659     15661
     15645     15647     15659     15662     15646     15645     15647     15648
     15646     15645     15647     15649     15646     15645     15647     15659
     15647     15659     15662     15663     15647     15659     15662     15664
     15647     15659     15662     15665     15648     15647     15659     15660
     15648     15647     15659     15661     15648     15647     15659     15662
     15649     15647     15659     15660     15649     15647     15659     15661
     15649     15647     15659     15662     15650     15653     15654     15655
     15650     15653     15654     15656     15651     15650     15653     15654
     15652     15650     15653     15654     15653     15654     15656     15657
     15653     15654     15656     15658     15653     15654     15656     15706
     15654     15656     15706     15707     15654     15656     15706     15708
     15654     15656     15706     15709     15655     15654     15656     15657
     15655     15654     15656     15658     15655     15654     15656     15706
     15656     15706     15709     15710     15656     15706     15709     15711
     15656     15706     15709     15712     15657     15656     15706     15707
     15657     15656     15706     15708     15657     15656     15706     15709
     15658     15656     15706     15707     15658     15656     15706     15708
     15658     15656     15706     15709     15659     15662     15665     15666
     15659     15662     15665     15667     15659     15662     15665     15668
     15660     15659     15662     15663     15660     15659     15662     15664
     15660     15659     15662     15665     15661     15659     15662     15663
     15661     15659     15662     15664     15661     15659     15662     15665
     15662     15665     15668     15669     15662     15665     15668     15670
     15662     15665     15668     15671     15663     15662     15665     15666
     15663     15662     15665     15667     15663     15662     15665     15668
     15664     15662     15665     15666     15664     15662     15665     15667
     15664     15662     15665     15668     15665     15668     15671     15672
     15665     15668     15671     15673     15665     15668     15671     15674
     15666     15665     15668     15669     15666     15665     15668     15670
     15666     15665     15668     15671     15667     15665     15668     15669
     15667     15665     15668     15670     15667     15665     15668     15671
     15668     15671     15674     15675     15668     15671     15674     15676
     15668     15671     15674     15677     15669     15668     15671     15672
     15669     15668     15671     15673     15669     15668     15671     15674
     15670     15668     15671     15672     15670     15668     15671     15673
     15670     15668     15671     15674     15671     15674     15677     15678
     15671     15674     15677     15679     15672     15671     15674     15675
     15672     15671     15674     15676     15672     15671     15674     15677
     15673     15671     15674     15675     15673     15671     15674     15676
     15673     15671     15674     15677     15674     15677     15679     15680
     15674     15677     15679     15681     15675     15674     15677     15678
     15675     15674     15677     15679     15676     15674     15677     15678
     15676     15674     15677     15679     15677     15679     15681     15682
     15677     15679     15681     15683     15677     15679     15681     15684
     15678     15677     15679     15680     15678     15677     15679     15681
     15679     15681     15684     15685     15679     15681     15684     15686
     15679     15681     15684     15687     15680     15679     15681     15682
     15680     15679     15681     15683     15680     15679     15681     15684
     15681     15684     15687     15688     15681     15684     15687     15689
     15681     15684     15687     15690     15682     15681     15684     15685
     15682     15681     15684     15686     15682     15681     15684     15687
     15683     15681     15684     15685     15683     15681     15684     15686
     15683     15681     15684     15687     15684     15687     15690     15691
     15684     15687     15690     15692     15684     15687     15690     15693
     15685     15684     15687     15688     15685     15684     15687     15689
     15685     15684     15687     15690     15686     15684     15687     15688
     15686     15684     15687     15689     15686     15684     15687     15690
     15687     15690     15693     15694     15687     15690     15693     15695
     15687     15690     15693     15696     15688     15687     15690     15691
     15688     15687     15690     15692     15688     15687     15690     15693
     15689     15687     15690     15691     15689     15687     15690     15692
     15689     15687     15690     15693     15690     15693     15696     15697
     15690     15693     15696     15698     15690     15693     15696     15699
     15691     15690     15693     15694     15691     15690     15693     15695
     15691     15690     15693     15696     15692     15690     15693     15694
     15692     15690     15693     15695     15692     15690     15693     15696
     15693     15696     15699     15700     15693     15696     15699     15701
     15693     15696     15699     15702     15694     15693     15696     15697
     15694     15693     15696     15698     15694     15693     15696     15699
     15695     15693     15696     15697     15695     15693     15696     15698
     15695     15693     15696     15699     15696     15699     15702     15703
     15696     15699     15702     15704     15696     15699     15702     15705
     15697     15696     15699     15700     15697     15696     15699     15701
     15697     15696     15699     15702     15698     15696     15699     15700
     15698     15696     15699     15701     15698     15696     15699     15702
     15700     15699     15702     15703     15700     15699     15702     15704
     15700     15699     15702     15705     15701     15699     15702     15703
     15701     15699     15702     15704     15701     15699     15702     15705
     15706     15709     15712     15713     15706     15709     15712     15714
     15706     15709     15712     15715     15707     15706     15709     15710
     15707     15706     15709     15711     15707     15706     15709     15712
     15708     15706     15709     15710     15708     15706     15709     15711
     15708     15706     15709     15712     15709     15712     15715     15716
     15709     15712     15715     15717     15709     15712     15715     15718
     15710     15709     15712     15713     15710     15709     15712     15714
     15710     15709     15712     15715     15711     15709     15712     15713
     15711     15709     15712     15714     15711     15709     15712     15715
     15712     15715     15718     15719     15712     15715     15718     15720
     15712     15715     15718     15721     15713     15712     15715     15716
     15713     15712     15715     15717     15713     15712     15715     15718
     15714     15712     15715     15716     15714     15712     15715     15717
     15714     15712     15715     15718     15715     15718     15721     15722
     15715     15718     15721     15723     15715     15718     15721     15724
     15716     15715     15718     15719     15716     15715     15718     15720
     15716     15715     15718     15721     15717     15715     15718     15719
     15717     15715     15718     15720     15717     15715     15718     15721
     15718     15721     15724     15725     15718     15721     15724     15726
     15718     15721     15724     15727     15719     15718     15721     15722
     15719     15718     15721     15723     15719     15718     15721     15724
     15720     15718     15721     15722     15720     15718     15721     15723
     15720     15718     15721     15724     15721     15724     15727     15728
     15721     15724     15727     15729     15721     15724     15727     15730
     15722     15721     15724     15725     15722     15721     15724     15726
     15722     15721     15724     15727     15723     15721     15724     15725
     15723     15721     15724     15726     15723     15721     15724     15727
     15724     15727     15730     15731     15724     15727     15730     15732
     15724     15727     15730     15733     15725     15724     15727     15728
     15725     15724     15727     15729     15725     15724     15727     15730
     15726     15724     15727     15728     15726     15724     15727     15729
     15726     15724     15727     15730     15727     15730     15733     15734
     15727     15730     15733     15735     15727     15730     15733     15736
     15728     15727     15730     15731     15728     15727     15730     15732
     15728     15727     15730     15733     15729     15727     15730     15731
     15729     15727     15730     15732     15729     15727     15730     15733
     15730     15733     15736     15737     15730     15733     15736     15738
     15730     15733     15736     15739     15731     15730     15733     15734
     15731     15730     15733     15735     15731     15730     15733     15736
     15732     15730     15733     15734     15732     15730     15733     15735
     15732     15730     15733     15736     15733     15736     15739     15740
     15733     15736     15739     15741     15733     15736     15739     15742
     15734     15733     15736     15737     15734     15733     15736     15738
     15734     15733     15736     15739     15735     15733     15736     15737
     15735     15733     15736     15738     15735     15733     15736     15739
     15736     15739     15742     15743     15736     15739     15742     15744
     15736     15739     15742     15745     15737     15736     15739     15740
     15737     15736     15739     15741     15737     15736     15739     15742
     15738     15736     15739     15740     15738     15736     15739     15741
     15738     15736     15739     15742     15739     15742     15745     15746
     15739     15742     15745     15747     15739     15742     15745     15748
     15740     15739     15742     15743     15740     15739     15742     15744
     15740     15739     15742     15745     15741     15739     15742     15743
     15741     15739     15742     15744     15741     15739     15742     15745
     15743     15742     15745     15746     15743     15742     15745     15747
     15743     15742     15745     15748     15744     15742     15745     15746
     15744     15742     15745     15747     15744     15742     15745     15748
     15749     15750     15765     15766     15749     15750     15765     15767
     15749     15750     15765     15771     15750     15749     15753     15754
     15750     15749     15753     15755     15750     15749     15753     15756
     15750     15749     15757     15758     15750     15749     15757     15759
     15750     15749     15757     15760     15750     15749     15761     15762
     15750     15749     15761     15763     15750     15749     15761     15764
     15750     15765     15771     15768     15751     15750     15749     15753
     15751     15750     15749     15757     15751     15750     15749     15761
     15751     15750     15765     15766     15751     15750     15765     15767
     15751     15750     15765     15771     15752     15750     15749     15753
     15752     15750     15749     15757     15752     15750     15749     15761
     15752     15750     15765     15766     15752     15750     15765     15767
     15752     15750     15765     15771     15753     15749     15750     15765
     15753     15749     15757     15758     15753     15749     15757     15759
     15753     15749     15757     15760     15753     15749     15761     15762
     15753     15749     15761     15763     15753     15749     15761     15764
     15754     15753     15749     15757     15754     15753     15749     15761
     15755     15753     15749     15757     15755     15753     15749     15761
     15756     15753     15749     15757     15756     15753     15749     15761
     15757     15749     15750     15765     15757     15749     15761     15762
     15757     15749     15761     15763     15757     15749     15761     15764
     15758     15757     15749     15761     15759     15757     15749     15761
     15760     15757     15749     15761     15761     15749     15750     15765
     15765     15771     15768     15769     15765     15771     15768     15770
     15765     15771     15768     15772     15766     15765     15771     15768
     15767     15765     15771     15768     15768     15772     15773     15774
     15768     15772     15773     15775     15768     15772     15773     15776
     15769     15768     15772     15773     15770     15768     15772     15773
     15771     15768     15772     15773     15772     15773     15776     15777
     15772     15773     15776     15778     15772     15773     15776     15784
     15773     15776     15778     15779     15773     15776     15784     15785
     15773     15776     15784     15786     15773     15776     15784     15787
     15774     15773     15776     15777     15774     15773     15776     15778
     15774     15773     15776     15784     15775     15773     15776     15777
     15775     15773     15776     15778     15775     15773     15776     15784
     15776     15778     15779     15780     15776     15778     15779     15781
     15776     15784     15787     15788     15777     15776     15778     15779
     15777     15776     15784     15785     15777     15776     15784     15786
     15777     15776     15784     15787     15778     15776     15784     15785
     15778     15776     15784     15786     15778     15776     15784     15787
     15778     15779     15781     15782     15778     15779     15781     15783
     15778     15779     15781     15793     15779     15778     15776     15784
     15779     15781     15793     15794     15779     15781     15793     15795
     15779     15781     15793     15796     15780     15779     15781     15782
     15780     15779     15781     15783     15780     15779     15781     15793
     15781     15793     15796     15797     15781     15793     15796     15798
     15781     15793     15796     15799     15782     15781     15793     15794
     15782     15781     15793     15795     15782     15781     15793     15796
     15783     15781     15793     15794     15783     15781     15793     15795
     15783     15781     15793     15796     15784     15787     15788     15789
     15784     15787     15788     15790     15785     15784     15787     15788
     15786     15784     15787     15788     15787     15788     15790     15791
     15787     15788     15790     15792     15787     15788     15790     15840
     15788     15790     15840     15841     15788     15790     15840     15842
     15788     15790     15840     15843     15789     15788     15790     15791
     15789     15788     15790     15792     15789     15788     15790     15840
     15790     15840     15843     15844     15790     15840     15843     15845
     15790     15840     15843     15846     15791     15790     15840     15841
     15791     15790     15840     15842     15791     15790     15840     15843
     15792     15790     15840     15841     15792     15790     15840     15842
     15792     15790     15840     15843     15793     15796     15799     15800
     15793     15796     15799     15801     15793     15796     15799     15802
     15794     15793     15796     15797     15794     15793     15796     15798
     15794     15793     15796     15799     15795     15793     15796     15797
     15795     15793     15796     15798     15795     15793     15796     15799
     15796     15799     15802     15803     15796     15799     15802     15804
     15796     15799     15802     15805     15797     15796     15799     15800
     15797     15796     15799     15801     15797     15796     15799     15802
     15798     15796     15799     15800     15798     15796     15799     15801
     15798     15796     15799     15802     15799     15802     15805     15806
     15799     15802     15805     15807     15799     15802     15805     15808
     15800     15799     15802     15803     15800     15799     15802     15804
     15800     15799     15802     15805     15801     15799     15802     15803
     15801     15799     15802     15804     15801     15799     15802     15805
     15802     15805     15808     15809     15802     15805     15808     15810
     15802     15805     15808     15811     15803     15802     15805     15806
     15803     15802     15805     15807     15803     15802     15805     15808
     15804     15802     15805     15806     15804     15802     15805     15807
     15804     15802     15805     15808     15805     15808     15811     15812
     15805     15808     15811     15813     15806     15805     15808     15809
     15806     15805     15808     15810     15806     15805     15808     15811
     15807     15805     15808     15809     15807     15805     15808     15810
     15807     15805     15808     15811     15808     15811     15813     15814
     15808     15811     15813     15815     15809     15808     15811     15812
     15809     15808     15811     15813     15810     15808     15811     15812
     15810     15808     15811     15813     15811     15813     15815     15816
     15811     15813     15815     15817     15811     15813     15815     15818
     15812     15811     15813     15814     15812     15811     15813     15815
     15813     15815     15818     15819     15813     15815     15818     15820
     15813     15815     15818     15821     15814     15813     15815     15816
     15814     15813     15815     15817     15814     15813     15815     15818
     15815     15818     15821     15822     15815     15818     15821     15823
     15815     15818     15821     15824     15816     15815     15818     15819
     15816     15815     15818     15820     15816     15815     15818     15821
     15817     15815     15818     15819     15817     15815     15818     15820
     15817     15815     15818     15821     15818     15821     15824     15825
     15818     15821     15824     15826     15818     15821     15824     15827
     15819     15818     15821     15822     15819     15818     15821     15823
     15819     15818     15821     15824     15820     15818     15821     15822
     15820     15818     15821     15823     15820     15818     15821     15824
     15821     15824     15827     15828     15821     15824     15827     15829
     15821     15824     15827     15830     15822     15821     15824     15825
     15822     15821     15824     15826     15822     15821     15824     15827
     15823     15821     15824     15825     15823     15821     15824     15826
     15823     15821     15824     15827     15824     15827     15830     15831
     15824     15827     15830     15832     15824     15827     15830     15833
     15825     15824     15827     15828     15825     15824     15827     15829
     15825     15824     15827     15830     15826     15824     15827     15828
     15826     15824     15827     15829     15826     15824     15827     15830
     15827     15830     15833     15834     15827     15830     15833     15835
     15827     15830     15833     15836     15828     15827     15830     15831
     15828     15827     15830     15832     15828     15827     15830     15833
     15829     15827     15830     15831     15829     15827     15830     15832
     15829     15827     15830     15833     15830     15833     15836     15837
     15830     15833     15836     15838     15830     15833     15836     15839
     15831     15830     15833     15834     15831     15830     15833     15835
     15831     15830     15833     15836     15832     15830     15833     15834
     15832     15830     15833     15835     15832     15830     15833     15836
     15834     15833     15836     15837     15834     15833     15836     15838
     15834     15833     15836     15839     15835     15833     15836     15837
     15835     15833     15836     15838     15835     15833     15836     15839
     15840     15843     15846     15847     15840     15843     15846     15848
     15840     15843     15846     15849     15841     15840     15843     15844
     15841     15840     15843     15845     15841     15840     15843     15846
     15842     15840     15843     15844     15842     15840     15843     15845
     15842     15840     15843     15846     15843     15846     15849     15850
     15843     15846     15849     15851     15843     15846     15849     15852
     15844     15843     15846     15847     15844     15843     15846     15848
     15844     15843     15846     15849     15845     15843     15846     15847
     15845     15843     15846     15848     15845     15843     15846     15849
     15846     15849     15852     15853     15846     15849     15852     15854
     15846     15849     15852     15855     15847     15846     15849     15850
     15847     15846     15849     15851     15847     15846     15849     15852
     15848     15846     15849     15850     15848     15846     15849     15851
     15848     15846     15849     15852     15849     15852     15855     15856
     15849     15852     15855     15857     15849     15852     15855     15858
     15850     15849     15852     15853     15850     15849     15852     15854
     15850     15849     15852     15855     15851     15849     15852     15853
     15851     15849     15852     15854     15851     15849     15852     15855
     15852     15855     15858     15859     15852     15855     15858     15860
     15852     15855     15858     15861     15853     15852     15855     15856
     15853     15852     15855     15857     15853     15852     15855     15858
     15854     15852     15855     15856     15854     15852     15855     15857
     15854     15852     15855     15858     15855     15858     15861     15862
     15855     15858     15861     15863     15855     15858     15861     15864
     15856     15855     15858     15859     15856     15855     15858     15860
     15856     15855     15858     15861     15857     15855     15858     15859
     15857     15855     15858     15860     15857     15855     15858     15861
     15858     15861     15864     15865     15858     15861     15864     15866
     15858     15861     15864     15867     15859     15858     15861     15862
     15859     15858     15861     15863     15859     15858     15861     15864
     15860     15858     15861     15862     15860     15858     15861     15863
     15860     15858     15861     15864     15861     15864     15867     15868
     15861     15864     15867     15869     15861     15864     15867     15870
     15862     15861     15864     15865     15862     15861     15864     15866
     15862     15861     15864     15867     15863     15861     15864     15865
     15863     15861     15864     15866     15863     15861     15864     15867
     15864     15867     15870     15871     15864     15867     15870     15872
     15864     15867     15870     15873     15865     15864     15867     15868
     15865     15864     15867     15869     15865     15864     15867     15870
     15866     15864     15867     15868     15866     15864     15867     15869
     15866     15864     15867     15870     15867     15870     15873     15874
     15867     15870     15873     15875     15867     15870     15873     15876
     15868     15867     15870     15871     15868     15867     15870     15872
     15868     15867     15870     15873     15869     15867     15870     15871
     15869     15867     15870     15872     15869     15867     15870     15873
     15870     15873     15876     15877     15870     15873     15876     15878
     15870     15873     15876     15879     15871     15870     15873     15874
     15871     15870     15873     15875     15871     15870     15873     15876
     15872     15870     15873     15874     15872     15870     15873     15875
     15872     15870     15873     15876     15873     15876     15879     15880
     15873     15876     15879     15881     15873     15876     15879     15882
     15874     15873     15876     15877     15874     15873     15876     15878
     15874     15873     15876     15879     15875     15873     15876     15877
     15875     15873     15876     15878     15875     15873     15876     15879
     15877     15876     15879     15880     15877     15876     15879     15881
     15877     15876     15879     15882     15878     15876     15879     15880
     15878     15876     15879     15881     15878     15876     15879     15882
     15883     15884     15899     15900     15883     15884     15899     15901
     15883     15884     15899     15905     15884     15883     15887     15888
     15884     15883     15887     15889     15884     15883     15887     15890
     15884     15883     15891     15892     15884     15883     15891     15893
     15884     15883     15891     15894     15884     15883     15895     15896
     15884     15883     15895     15897     15884     15883     15895     15898
     15884     15899     15905     15902     15885     15884     15883     15887
     15885     15884     15883     15891     15885     15884     15883     15895
     15885     15884     15899     15900     15885     15884     15899     15901
     15885     15884     15899     15905     15886     15884     15883     15887
     15886     15884     15883     15891     15886     15884     15883     15895
     15886     15884     15899     15900     15886     15884     15899     15901
     15886     15884     15899     15905     15887     15883     15884     15899
     15887     15883     15891     15892     15887     15883     15891     15893
     15887     15883     15891     15894     15887     15883     15895     15896
     15887     15883     15895     15897     15887     15883     15895     15898
     15888     15887     15883     15891     15888     15887     15883     15895
     15889     15887     15883     15891     15889     15887     15883     15895
     15890     15887     15883     15891     15890     15887     15883     15895
     15891     15883     15884     15899     15891     15883     15895     15896
     15891     15883     15895     15897     15891     15883     15895     15898
     15892     15891     15883     15895     15893     15891     15883     15895
     15894     15891     15883     15895     15895     15883     15884     15899
     15899     15905     15902     15903     15899     15905     15902     15904
     15899     15905     15902     15906     15900     15899     15905     15902
     15901     15899     15905     15902     15902     15906     15907     15908
     15902     15906     15907     15909     15902     15906     15907     15910
     15903     15902     15906     15907     15904     15902     15906     15907
     15905     15902     15906     15907     15906     15907     15910     15911
     15906     15907     15910     15912     15906     15907     15910     15918
     15907     15910     15912     15913     15907     15910     15918     15919
     15907     15910     15918     15920     15907     15910     15918     15921
     15908     15907     15910     15911     15908     15907     15910     15912
     15908     15907     15910     15918     15909     15907     15910     15911
     15909     15907     15910     15912     15909     15907     15910     15918
     15910     15912     15913     15914     15910     15912     15913     15915
     15910     15918     15921     15922     15911     15910     15912     15913
     15911     15910     15918     15919     15911     15910     15918     15920
     15911     15910     15918     15921     15912     15910     15918     15919
     15912     15910     15918     15920     15912     15910     15918     15921
     15912     15913     15915     15916     15912     15913     15915     15917
     15912     15913     15915     15927     15913     15912     15910     15918
     15913     15915     15927     15928     15913     15915     15927     15929
     15913     15915     15927     15930     15914     15913     15915     15916
     15914     15913     15915     15917     15914     15913     15915     15927
     15915     15927     15930     15931     15915     15927     15930     15932
     15915     15927     15930     15933     15916     15915     15927     15928
     15916     15915     15927     15929     15916     15915     15927     15930
     15917     15915     15927     15928     15917     15915     15927     15929
     15917     15915     15927     15930     15918     15921     15922     15923
     15918     15921     15922     15924     15919     15918     15921     15922
     15920     15918     15921     15922     15921     15922     15924     15925
     15921     15922     15924     15926     15921     15922     15924     15974
     15922     15924     15974     15975     15922     15924     15974     15976
     15922     15924     15974     15977     15923     15922     15924     15925
     15923     15922     15924     15926     15923     15922     15924     15974
     15924     15974     15977     15978     15924     15974     15977     15979
     15924     15974     15977     15980     15925     15924     15974     15975
     15925     15924     15974     15976     15925     15924     15974     15977
     15926     15924     15974     15975     15926     15924     15974     15976
     15926     15924     15974     15977     15927     15930     15933     15934
     15927     15930     15933     15935     15927     15930     15933     15936
     15928     15927     15930     15931     15928     15927     15930     15932
     15928     15927     15930     15933     15929     15927     15930     15931
     15929     15927     15930     15932     15929     15927     15930     15933
     15930     15933     15936     15937     15930     15933     15936     15938
     15930     15933     15936     15939     15931     15930     15933     15934
     15931     15930     15933     15935     15931     15930     15933     15936
     15932     15930     15933     15934     15932     15930     15933     15935
     15932     15930     15933     15936     15933     15936     15939     15940
     15933     15936     15939     15941     15933     15936     15939     15942
     15934     15933     15936     15937     15934     15933     15936     15938
     15934     15933     15936     15939     15935     15933     15936     15937
     15935     15933     15936     15938     15935     15933     15936     15939
     15936     15939     15942     15943     15936     15939     15942     15944
     15936     15939     15942     15945     15937     15936     15939     15940
     15937     15936     15939     15941     15937     15936     15939     15942
     15938     15936     15939     15940     15938     15936     15939     15941
     15938     15936     15939     15942     15939     15942     15945     15946
     15939     15942     15945     15947     15940     15939     15942     15943
     15940     15939     15942     15944     15940     15939     15942     15945
     15941     15939     15942     15943     15941     15939     15942     15944
     15941     15939     15942     15945     15942     15945     15947     15948
     15942     15945     15947     15949     15943     15942     15945     15946
     15943     15942     15945     15947     15944     15942     15945     15946
     15944     15942     15945     15947     15945     15947     15949     15950
     15945     15947     15949     15951     15945     15947     15949     15952
     15946     15945     15947     15948     15946     15945     15947     15949
     15947     15949     15952     15953     15947     15949     15952     15954
     15947     15949     15952     15955     15948     15947     15949     15950
     15948     15947     15949     15951     15948     15947     15949     15952
     15949     15952     15955     15956     15949     15952     15955     15957
     15949     15952     15955     15958     15950     15949     15952     15953
     15950     15949     15952     15954     15950     15949     15952     15955
     15951     15949     15952     15953     15951     15949     15952     15954
     15951     15949     15952     15955     15952     15955     15958     15959
     15952     15955     15958     15960     15952     15955     15958     15961
     15953     15952     15955     15956     15953     15952     15955     15957
     15953     15952     15955     15958     15954     15952     15955     15956
     15954     15952     15955     15957     15954     15952     15955     15958
     15955     15958     15961     15962     15955     15958     15961     15963
     15955     15958     15961     15964     15956     15955     15958     15959
     15956     15955     15958     15960     15956     15955     15958     15961
     15957     15955     15958     15959     15957     15955     15958     15960
     15957     15955     15958     15961     15958     15961     15964     15965
     15958     15961     15964     15966     15958     15961     15964     15967
     15959     15958     15961     15962     15959     15958     15961     15963
     15959     15958     15961     15964     15960     15958     15961     15962
     15960     15958     15961     15963     15960     15958     15961     15964
     15961     15964     15967     15968     15961     15964     15967     15969
     15961     15964     15967     15970     15962     15961     15964     15965
     15962     15961     15964     15966     15962     15961     15964     15967
     15963     15961     15964     15965     15963     15961     15964     15966
     15963     15961     15964     15967     15964     15967     15970     15971
     15964     15967     15970     15972     15964     15967     15970     15973
     15965     15964     15967     15968     15965     15964     15967     15969
     15965     15964     15967     15970     15966     15964     15967     15968
     15966     15964     15967     15969     15966     15964     15967     15970
     15968     15967     15970     15971     15968     15967     15970     15972
     15968     15967     15970     15973     15969     15967     15970     15971
     15969     15967     15970     15972     15969     15967     15970     15973
     15974     15977     15980     15981     15974     15977     15980     15982
     15974     15977     15980     15983     15975     15974     15977     15978
     15975     15974     15977     15979     15975     15974     15977     15980
     15976     15974     15977     15978     15976     15974     15977     15979
     15976     15974     15977     15980     15977     15980     15983     15984
     15977     15980     15983     15985     15977     15980     15983     15986
     15978     15977     15980     15981     15978     15977     15980     15982
     15978     15977     15980     15983     15979     15977     15980     15981
     15979     15977     15980     15982     15979     15977     15980     15983
     15980     15983     15986     15987     15980     15983     15986     15988
     15980     15983     15986     15989     15981     15980     15983     15984
     15981     15980     15983     15985     15981     15980     15983     15986
     15982     15980     15983     15984     15982     15980     15983     15985
     15982     15980     15983     15986     15983     15986     15989     15990
     15983     15986     15989     15991     15983     15986     15989     15992
     15984     15983     15986     15987     15984     15983     15986     15988
     15984     15983     15986     15989     15985     15983     15986     15987
     15985     15983     15986     15988     15985     15983     15986     15989
     15986     15989     15992     15993     15986     15989     15992     15994
     15986     15989     15992     15995     15987     15986     15989     15990
     15987     15986     15989     15991     15987     15986     15989     15992
     15988     15986     15989     15990     15988     15986     15989     15991
     15988     15986     15989     15992     15989     15992     15995     15996
     15989     15992     15995     15997     15989     15992     15995     15998
     15990     15989     15992     15993     15990     15989     15992     15994
     15990     15989     15992     15995     15991     15989     15992     15993
     15991     15989     15992     15994     15991     15989     15992     15995
     15992     15995     15998     15999     15992     15995     15998     16000
     15992     15995     15998     16001     15993     15992     15995     15996
     15993     15992     15995     15997     15993     15992     15995     15998
     15994     15992     15995     15996     15994     15992     15995     15997
     15994     15992     15995     15998     15995     15998     16001     16002
     15995     15998     16001     16003     15995     15998     16001     16004
     15996     15995     15998     15999     15996     15995     15998     16000
     15996     15995     15998     16001     15997     15995     15998     15999
     15997     15995     15998     16000     15997     15995     15998     16001
     15998     16001     16004     16005     15998     16001     16004     16006
     15998     16001     16004     16007     15999     15998     16001     16002
     15999     15998     16001     16003     15999     15998     16001     16004
     16000     15998     16001     16002     16000     15998     16001     16003
     16000     15998     16001     16004     16001     16004     16007     16008
     16001     16004     16007     16009     16001     16004     16007     16010
     16002     16001     16004     16005     16002     16001     16004     16006
     16002     16001     16004     16007     16003     16001     16004     16005
     16003     16001     16004     16006     16003     16001     16004     16007
     16004     16007     16010     16011     16004     16007     16010     16012
     16004     16007     16010     16013     16005     16004     16007     16008
     16005     16004     16007     16009     16005     16004     16007     16010
     16006     16004     16007     16008     16006     16004     16007     16009
     16006     16004     16007     16010     16007     16010     16013     16014
     16007     16010     16013     16015     16007     16010     16013     16016
     16008     16007     16010     16011     16008     16007     16010     16012
     16008     16007     16010     16013     16009     16007     16010     16011
     16009     16007     16010     16012     16009     16007     16010     16013
     16011     16010     16013     16014     16011     16010     16013     16015
     16011     16010     16013     16016     16012     16010     16013     16014
     16012     16010     16013     16015     16012     16010     16013     16016
     16017     16021     16023     16024     16017     16021     16023     16025
     16017     16021     16026     16027     16017     16021     16026     16028
     16017     16021     16026     16032     16018     16017     16021     16022
     16018     16017     16021     16023     16018     16017     16021     16026
     16019     16017     16021     16022     16019     16017     16021     16023
     16019     16017     16021     16026     16020     16017     16021     16022
     16020     16017     16021     16023     16020     16017     16021     16026
     16021     16026     16032     16029     16022     16021     16023     16024
     16022     16021     16023     16025     16022     16021     16026     16027
     16022     16021     16026     16028     16022     16021     16026     16032
     16023     16021     16026     16027     16023     16021     16026     16028
     16023     16021     16026     16032     16024     16023     16021     16026
     16025     16023     16021     16026     16026     16032     16029     16030
     16026     16032     16029     16031     16026     16032     16029     16033
     16027     16026     16032     16029     16028     16026     16032     16029
     16029     16033     16034     16035     16029     16033     16034     16036
     16029     16033     16034     16037     16030     16029     16033     16034
     16031     16029     16033     16034     16032     16029     16033     16034
     16033     16034     16037     16038     16033     16034     16037     16039
     16033     16034     16037     16045     16034     16037     16039     16040
     16034     16037     16045     16046     16034     16037     16045     16047
     16034     16037     16045     16048     16035     16034     16037     16038
     16035     16034     16037     16039     16035     16034     16037     16045
     16036     16034     16037     16038     16036     16034     16037     16039
     16036     16034     16037     16045     16037     16039     16040     16041
     16037     16039     16040     16042     16037     16045     16048     16049
     16038     16037     16039     16040     16038     16037     16045     16046
     16038     16037     16045     16047     16038     16037     16045     16048
     16039     16037     16045     16046     16039     16037     16045     16047
     16039     16037     16045     16048     16039     16040     16042     16043
     16039     16040     16042     16044     16039     16040     16042     16054
     16040     16039     16037     16045     16040     16042     16054     16055
     16040     16042     16054     16056     16040     16042     16054     16057
     16041     16040     16042     16043     16041     16040     16042     16044
     16041     16040     16042     16054     16042     16054     16057     16058
     16042     16054     16057     16059     16042     16054     16057     16060
     16043     16042     16054     16055     16043     16042     16054     16056
     16043     16042     16054     16057     16044     16042     16054     16055
     16044     16042     16054     16056     16044     16042     16054     16057
     16045     16048     16049     16050     16045     16048     16049     16051
     16046     16045     16048     16049     16047     16045     16048     16049
     16048     16049     16051     16052     16048     16049     16051     16053
     16048     16049     16051     16101     16049     16051     16101     16102
     16049     16051     16101     16103     16049     16051     16101     16104
     16050     16049     16051     16052     16050     16049     16051     16053
     16050     16049     16051     16101     16051     16101     16104     16105
     16051     16101     16104     16106     16051     16101     16104     16107
     16052     16051     16101     16102     16052     16051     16101     16103
     16052     16051     16101     16104     16053     16051     16101     16102
     16053     16051     16101     16103     16053     16051     16101     16104
     16054     16057     16060     16061     16054     16057     16060     16062
     16054     16057     16060     16063     16055     16054     16057     16058
     16055     16054     16057     16059     16055     16054     16057     16060
     16056     16054     16057     16058     16056     16054     16057     16059
     16056     16054     16057     16060     16057     16060     16063     16064
     16057     16060     16063     16065     16057     16060     16063     16066
     16058     16057     16060     16061     16058     16057     16060     16062
     16058     16057     16060     16063     16059     16057     16060     16061
     16059     16057     16060     16062     16059     16057     16060     16063
     16060     16063     16066     16067     16060     16063     16066     16068
     16060     16063     16066     16069     16061     16060     16063     16064
     16061     16060     16063     16065     16061     16060     16063     16066
     16062     16060     16063     16064     16062     16060     16063     16065
     16062     16060     16063     16066     16063     16066     16069     16070
     16063     16066     16069     16071     16063     16066     16069     16072
     16064     16063     16066     16067     16064     16063     16066     16068
     16064     16063     16066     16069     16065     16063     16066     16067
     16065     16063     16066     16068     16065     16063     16066     16069
     16066     16069     16072     16073     16066     16069     16072     16074
     16067     16066     16069     16070     16067     16066     16069     16071
     16067     16066     16069     16072     16068     16066     16069     16070
     16068     16066     16069     16071     16068     16066     16069     16072
     16069     16072     16074     16075     16069     16072     16074     16076
     16070     16069     16072     16073     16070     16069     16072     16074
     16071     16069     16072     16073     16071     16069     16072     16074
     16072     16074     16076     16077     16072     16074     16076     16078
     16072     16074     16076     16079     16073     16072     16074     16075
     16073     16072     16074     16076     16074     16076     16079     16080
     16074     16076     16079     16081     16074     16076     16079     16082
     16075     16074     16076     16077     16075     16074     16076     16078
     16075     16074     16076     16079     16076     16079     16082     16083
     16076     16079     16082     16084     16076     16079     16082     16085
     16077     16076     16079     16080     16077     16076     16079     16081
     16077     16076     16079     16082     16078     16076     16079     16080
     16078     16076     16079     16081     16078     16076     16079     16082
     16079     16082     16085     16086     16079     16082     16085     16087
     16079     16082     16085     16088     16080     16079     16082     16083
     16080     16079     16082     16084     16080     16079     16082     16085
     16081     16079     16082     16083     16081     16079     16082     16084
     16081     16079     16082     16085     16082     16085     16088     16089
     16082     16085     16088     16090     16082     16085     16088     16091
     16083     16082     16085     16086     16083     16082     16085     16087
     16083     16082     16085     16088     16084     16082     16085     16086
     16084     16082     16085     16087     16084     16082     16085     16088
     16085     16088     16091     16092     16085     16088     16091     16093
     16085     16088     16091     16094     16086     16085     16088     16089
     16086     16085     16088     16090     16086     16085     16088     16091
     16087     16085     16088     16089     16087     16085     16088     16090
     16087     16085     16088     16091     16088     16091     16094     16095
     16088     16091     16094     16096     16088     16091     16094     16097
     16089     16088     16091     16092     16089     16088     16091     16093
     16089     16088     16091     16094     16090     16088     16091     16092
     16090     16088     16091     16093     16090     16088     16091     16094
     16091     16094     16097     16098     16091     16094     16097     16099
     16091     16094     16097     16100     16092     16091     16094     16095
     16092     16091     16094     16096     16092     16091     16094     16097
     16093     16091     16094     16095     16093     16091     16094     16096
     16093     16091     16094     16097     16095     16094     16097     16098
     16095     16094     16097     16099     16095     16094     16097     16100
     16096     16094     16097     16098     16096     16094     16097     16099
     16096     16094     16097     16100     16101     16104     16107     16108
     16101     16104     16107     16109     16101     16104     16107     16110
     16102     16101     16104     16105     16102     16101     16104     16106
     16102     16101     16104     16107     16103     16101     16104     16105
     16103     16101     16104     16106     16103     16101     16104     16107
     16104     16107     16110     16111     16104     16107     16110     16112
     16104     16107     16110     16113     16105     16104     16107     16108
     16105     16104     16107     16109     16105     16104     16107     16110
     16106     16104     16107     16108     16106     16104     16107     16109
     16106     16104     16107     16110     16107     16110     16113     16114
     16107     16110     16113     16115     16107     16110     16113     16116
     16108     16107     16110     16111     16108     16107     16110     16112
     16108     16107     16110     16113     16109     16107     16110     16111
     16109     16107     16110     16112     16109     16107     16110     16113
     16110     16113     16116     16117     16110     16113     16116     16118
     16110     16113     16116     16119     16111     16110     16113     16114
     16111     16110     16113     16115     16111     16110     16113     16116
     16112     16110     16113     16114     16112     16110     16113     16115
     16112     16110     16113     16116     16113     16116     16119     16120
     16113     16116     16119     16121     16113     16116     16119     16122
     16114     16113     16116     16117     16114     16113     16116     16118
     16114     16113     16116     16119     16115     16113     16116     16117
     16115     16113     16116     16118     16115     16113     16116     16119
     16116     16119     16122     16123     16116     16119     16122     16124
     16116     16119     16122     16125     16117     16116     16119     16120
     16117     16116     16119     16121     16117     16116     16119     16122
     16118     16116     16119     16120     16118     16116     16119     16121
     16118     16116     16119     16122     16119     16122     16125     16126
     16119     16122     16125     16127     16119     16122     16125     16128
     16120     16119     16122     16123     16120     16119     16122     16124
     16120     16119     16122     16125     16121     16119     16122     16123
     16121     16119     16122     16124     16121     16119     16122     16125
     16122     16125     16128     16129     16122     16125     16128     16130
     16122     16125     16128     16131     16123     16122     16125     16126
     16123     16122     16125     16127     16123     16122     16125     16128
     16124     16122     16125     16126     16124     16122     16125     16127
     16124     16122     16125     16128     16125     16128     16131     16132
     16125     16128     16131     16133     16125     16128     16131     16134
     16126     16125     16128     16129     16126     16125     16128     16130
     16126     16125     16128     16131     16127     16125     16128     16129
     16127     16125     16128     16130     16127     16125     16128     16131
     16128     16131     16134     16135     16128     16131     16134     16136
     16128     16131     16134     16137     16129     16128     16131     16132
     16129     16128     16131     16133     16129     16128     16131     16134
     16130     16128     16131     16132     16130     16128     16131     16133
     16130     16128     16131     16134     16131     16134     16137     16138
     16131     16134     16137     16139     16131     16134     16137     16140
     16132     16131     16134     16135     16132     16131     16134     16136
     16132     16131     16134     16137     16133     16131     16134     16135
     16133     16131     16134     16136     16133     16131     16134     16137
     16134     16137     16140     16141     16134     16137     16140     16142
     16134     16137     16140     16143     16135     16134     16137     16138
     16135     16134     16137     16139     16135     16134     16137     16140
     16136     16134     16137     16138     16136     16134     16137     16139
     16136     16134     16137     16140     16138     16137     16140     16141
     16138     16137     16140     16142     16138     16137     16140     16143
     16139     16137     16140     16141     16139     16137     16140     16142
     16139     16137     16140     16143     16144     16145     16160     16161
     16144     16145     16160     16162     16144     16145     16160     16166
     16145     16144     16148     16149     16145     16144     16148     16150
     16145     16144     16148     16151     16145     16144     16152     16153
     16145     16144     16152     16154     16145     16144     16152     16155
     16145     16144     16156     16157     16145     16144     16156     16158
     16145     16144     16156     16159     16145     16160     16166     16163
     16146     16145     16144     16148     16146     16145     16144     16152
     16146     16145     16144     16156     16146     16145     16160     16161
     16146     16145     16160     16162     16146     16145     16160     16166
     16147     16145     16144     16148     16147     16145     16144     16152
     16147     16145     16144     16156     16147     16145     16160     16161
     16147     16145     16160     16162     16147     16145     16160     16166
     16148     16144     16145     16160     16148     16144     16152     16153
     16148     16144     16152     16154     16148     16144     16152     16155
     16148     16144     16156     16157     16148     16144     16156     16158
     16148     16144     16156     16159     16149     16148     16144     16152
     16149     16148     16144     16156     16150     16148     16144     16152
     16150     16148     16144     16156     16151     16148     16144     16152
     16151     16148     16144     16156     16152     16144     16145     16160
     16152     16144     16156     16157     16152     16144     16156     16158
     16152     16144     16156     16159     16153     16152     16144     16156
     16154     16152     16144     16156     16155     16152     16144     16156
     16156     16144     16145     16160     16160     16166     16163     16164
     16160     16166     16163     16165     16160     16166     16163     16167
     16161     16160     16166     16163     16162     16160     16166     16163
     16163     16167     16168     16169     16163     16167     16168     16170
     16163     16167     16168     16171     16164     16163     16167     16168
     16165     16163     16167     16168     16166     16163     16167     16168
     16167     16168     16171     16172     16167     16168     16171     16173
     16167     16168     16171     16179     16168     16171     16173     16174
     16168     16171     16179     16180     16168     16171     16179     16181
     16168     16171     16179     16182     16169     16168     16171     16172
     16169     16168     16171     16173     16169     16168     16171     16179
     16170     16168     16171     16172     16170     16168     16171     16173
     16170     16168     16171     16179     16171     16173     16174     16175
     16171     16173     16174     16176     16171     16179     16182     16183
     16172     16171     16173     16174     16172     16171     16179     16180
     16172     16171     16179     16181     16172     16171     16179     16182
     16173     16171     16179     16180     16173     16171     16179     16181
     16173     16171     16179     16182     16173     16174     16176     16177
     16173     16174     16176     16178     16173     16174     16176     16188
     16174     16173     16171     16179     16174     16176     16188     16189
     16174     16176     16188     16190     16174     16176     16188     16191
     16175     16174     16176     16177     16175     16174     16176     16178
     16175     16174     16176     16188     16176     16188     16191     16192
     16176     16188     16191     16193     16176     16188     16191     16194
     16177     16176     16188     16189     16177     16176     16188     16190
     16177     16176     16188     16191     16178     16176     16188     16189
     16178     16176     16188     16190     16178     16176     16188     16191
     16179     16182     16183     16184     16179     16182     16183     16185
     16180     16179     16182     16183     16181     16179     16182     16183
     16182     16183     16185     16186     16182     16183     16185     16187
     16182     16183     16185     16235     16183     16185     16235     16236
     16183     16185     16235     16237     16183     16185     16235     16238
     16184     16183     16185     16186     16184     16183     16185     16187
     16184     16183     16185     16235     16185     16235     16238     16239
     16185     16235     16238     16240     16185     16235     16238     16241
     16186     16185     16235     16236     16186     16185     16235     16237
     16186     16185     16235     16238     16187     16185     16235     16236
     16187     16185     16235     16237     16187     16185     16235     16238
     16188     16191     16194     16195     16188     16191     16194     16196
     16188     16191     16194     16197     16189     16188     16191     16192
     16189     16188     16191     16193     16189     16188     16191     16194
     16190     16188     16191     16192     16190     16188     16191     16193
     16190     16188     16191     16194     16191     16194     16197     16198
     16191     16194     16197     16199     16191     16194     16197     16200
     16192     16191     16194     16195     16192     16191     16194     16196
     16192     16191     16194     16197     16193     16191     16194     16195
     16193     16191     16194     16196     16193     16191     16194     16197
     16194     16197     16200     16201     16194     16197     16200     16202
     16194     16197     16200     16203     16195     16194     16197     16198
     16195     16194     16197     16199     16195     16194     16197     16200
     16196     16194     16197     16198     16196     16194     16197     16199
     16196     16194     16197     16200     16197     16200     16203     16204
     16197     16200     16203     16205     16197     16200     16203     16206
     16198     16197     16200     16201     16198     16197     16200     16202
     16198     16197     16200     16203     16199     16197     16200     16201
     16199     16197     16200     16202     16199     16197     16200     16203
     16200     16203     16206     16207     16200     16203     16206     16208
     16201     16200     16203     16204     16201     16200     16203     16205
     16201     16200     16203     16206     16202     16200     16203     16204
     16202     16200     16203     16205     16202     16200     16203     16206
     16203     16206     16208     16209     16203     16206     16208     16210
     16204     16203     16206     16207     16204     16203     16206     16208
     16205     16203     16206     16207     16205     16203     16206     16208
     16206     16208     16210     16211     16206     16208     16210     16212
     16206     16208     16210     16213     16207     16206     16208     16209
     16207     16206     16208     16210     16208     16210     16213     16214
     16208     16210     16213     16215     16208     16210     16213     16216
     16209     16208     16210     16211     16209     16208     16210     16212
     16209     16208     16210     16213     16210     16213     16216     16217
     16210     16213     16216     16218     16210     16213     16216     16219
     16211     16210     16213     16214     16211     16210     16213     16215
     16211     16210     16213     16216     16212     16210     16213     16214
     16212     16210     16213     16215     16212     16210     16213     16216
     16213     16216     16219     16220     16213     16216     16219     16221
     16213     16216     16219     16222     16214     16213     16216     16217
     16214     16213     16216     16218     16214     16213     16216     16219
     16215     16213     16216     16217     16215     16213     16216     16218
     16215     16213     16216     16219     16216     16219     16222     16223
     16216     16219     16222     16224     16216     16219     16222     16225
     16217     16216     16219     16220     16217     16216     16219     16221
     16217     16216     16219     16222     16218     16216     16219     16220
     16218     16216     16219     16221     16218     16216     16219     16222
     16219     16222     16225     16226     16219     16222     16225     16227
     16219     16222     16225     16228     16220     16219     16222     16223
     16220     16219     16222     16224     16220     16219     16222     16225
     16221     16219     16222     16223     16221     16219     16222     16224
     16221     16219     16222     16225     16222     16225     16228     16229
     16222     16225     16228     16230     16222     16225     16228     16231
     16223     16222     16225     16226     16223     16222     16225     16227
     16223     16222     16225     16228     16224     16222     16225     16226
     16224     16222     16225     16227     16224     16222     16225     16228
     16225     16228     16231     16232     16225     16228     16231     16233
     16225     16228     16231     16234     16226     16225     16228     16229
     16226     16225     16228     16230     16226     16225     16228     16231
     16227     16225     16228     16229     16227     16225     16228     16230
     16227     16225     16228     16231     16229     16228     16231     16232
     16229     16228     16231     16233     16229     16228     16231     16234
     16230     16228     16231     16232     16230     16228     16231     16233
     16230     16228     16231     16234     16235     16238     16241     16242
     16235     16238     16241     16243     16235     16238     16241     16244
     16236     16235     16238     16239     16236     16235     16238     16240
     16236     16235     16238     16241     16237     16235     16238     16239
     16237     16235     16238     16240     16237     16235     16238     16241
     16238     16241     16244     16245     16238     16241     16244     16246
     16238     16241     16244     16247     16239     16238     16241     16242
     16239     16238     16241     16243     16239     16238     16241     16244
     16240     16238     16241     16242     16240     16238     16241     16243
     16240     16238     16241     16244     16241     16244     16247     16248
     16241     16244     16247     16249     16241     16244     16247     16250
     16242     16241     16244     16245     16242     16241     16244     16246
     16242     16241     16244     16247     16243     16241     16244     16245
     16243     16241     16244     16246     16243     16241     16244     16247
     16244     16247     16250     16251     16244     16247     16250     16252
     16244     16247     16250     16253     16245     16244     16247     16248
     16245     16244     16247     16249     16245     16244     16247     16250
     16246     16244     16247     16248     16246     16244     16247     16249
     16246     16244     16247     16250     16247     16250     16253     16254
     16247     16250     16253     16255     16247     16250     16253     16256
     16248     16247     16250     16251     16248     16247     16250     16252
     16248     16247     16250     16253     16249     16247     16250     16251
     16249     16247     16250     16252     16249     16247     16250     16253
     16250     16253     16256     16257     16250     16253     16256     16258
     16250     16253     16256     16259     16251     16250     16253     16254
     16251     16250     16253     16255     16251     16250     16253     16256
     16252     16250     16253     16254     16252     16250     16253     16255
     16252     16250     16253     16256     16253     16256     16259     16260
     16253     16256     16259     16261     16253     16256     16259     16262
     16254     16253     16256     16257     16254     16253     16256     16258
     16254     16253     16256     16259     16255     16253     16256     16257
     16255     16253     16256     16258     16255     16253     16256     16259
     16256     16259     16262     16263     16256     16259     16262     16264
     16256     16259     16262     16265     16257     16256     16259     16260
     16257     16256     16259     16261     16257     16256     16259     16262
     16258     16256     16259     16260     16258     16256     16259     16261
     16258     16256     16259     16262     16259     16262     16265     16266
     16259     16262     16265     16267     16259     16262     16265     16268
     16260     16259     16262     16263     16260     16259     16262     16264
     16260     16259     16262     16265     16261     16259     16262     16263
     16261     16259     16262     16264     16261     16259     16262     16265
     16262     16265     16268     16269     16262     16265     16268     16270
     16262     16265     16268     16271     16263     16262     16265     16266
     16263     16262     16265     16267     16263     16262     16265     16268
     16264     16262     16265     16266     16264     16262     16265     16267
     16264     16262     16265     16268     16265     16268     16271     16272
     16265     16268     16271     16273     16265     16268     16271     16274
     16266     16265     16268     16269     16266     16265     16268     16270
     16266     16265     16268     16271     16267     16265     16268     16269
     16267     16265     16268     16270     16267     16265     16268     16271
     16268     16271     16274     16275     16268     16271     16274     16276
     16268     16271     16274     16277     16269     16268     16271     16272
     16269     16268     16271     16273     16269     16268     16271     16274
     16270     16268     16271     16272     16270     16268     16271     16273
     16270     16268     16271     16274     16272     16271     16274     16275
     16272     16271     16274     16276     16272     16271     16274     16277
     16273     16271     16274     16275     16273     16271     16274     16276
     16273     16271     16274     16277     16278     16279     16294     16295
     16278     16279     16294     16296     16278     16279     16294     16300
     16279     16278     16282     16283     16279     16278     16282     16284
     16279     16278     16282     16285     16279     16278     16286     16287
     16279     16278     16286     16288     16279     16278     16286     16289
     16279     16278     16290     16291     16279     16278     16290     16292
     16279     16278     16290     16293     16279     16294     16300     16297
     16280     16279     16278     16282     16280     16279     16278     16286
     16280     16279     16278     16290     16280     16279     16294     16295
     16280     16279     16294     16296     16280     16279     16294     16300
     16281     16279     16278     16282     16281     16279     16278     16286
     16281     16279     16278     16290     16281     16279     16294     16295
     16281     16279     16294     16296     16281     16279     16294     16300
     16282     16278     16279     16294     16282     16278     16286     16287
     16282     16278     16286     16288     16282     16278     16286     16289
     16282     16278     16290     16291     16282     16278     16290     16292
     16282     16278     16290     16293     16283     16282     16278     16286
     16283     16282     16278     16290     16284     16282     16278     16286
     16284     16282     16278     16290     16285     16282     16278     16286
     16285     16282     16278     16290     16286     16278     16279     16294
     16286     16278     16290     16291     16286     16278     16290     16292
     16286     16278     16290     16293     16287     16286     16278     16290
     16288     16286     16278     16290     16289     16286     16278     16290
     16290     16278     16279     16294     16294     16300     16297     16298
     16294     16300     16297     16299     16294     16300     16297     16301
     16295     16294     16300     16297     16296     16294     16300     16297
     16297     16301     16302     16303     16297     16301     16302     16304
     16297     16301     16302     16305     16298     16297     16301     16302
     16299     16297     16301     16302     16300     16297     16301     16302
     16301     16302     16305     16306     16301     16302     16305     16307
     16301     16302     16305     16313     16302     16305     16307     16308
     16302     16305     16313     16314     16302     16305     16313     16315
     16302     16305     16313     16316     16303     16302     16305     16306
     16303     16302     16305     16307     16303     16302     16305     16313
     16304     16302     16305     16306     16304     16302     16305     16307
     16304     16302     16305     16313     16305     16307     16308     16309
     16305     16307     16308     16310     16305     16313     16316     16317
     16306     16305     16307     16308     16306     16305     16313     16314
     16306     16305     16313     16315     16306     16305     16313     16316
     16307     16305     16313     16314     16307     16305     16313     16315
     16307     16305     16313     16316     16307     16308     16310     16311
     16307     16308     16310     16312     16307     16308     16310     16322
     16308     16307     16305     16313     16308     16310     16322     16323
     16308     16310     16322     16324     16308     16310     16322     16325
     16309     16308     16310     16311     16309     16308     16310     16312
     16309     16308     16310     16322     16310     16322     16325     16326
     16310     16322     16325     16327     16310     16322     16325     16328
     16311     16310     16322     16323     16311     16310     16322     16324
     16311     16310     16322     16325     16312     16310     16322     16323
     16312     16310     16322     16324     16312     16310     16322     16325
     16313     16316     16317     16318     16313     16316     16317     16319
     16314     16313     16316     16317     16315     16313     16316     16317
     16316     16317     16319     16320     16316     16317     16319     16321
     16316     16317     16319     16369     16317     16319     16369     16370
     16317     16319     16369     16371     16317     16319     16369     16372
     16318     16317     16319     16320     16318     16317     16319     16321
     16318     16317     16319     16369     16319     16369     16372     16373
     16319     16369     16372     16374     16319     16369     16372     16375
     16320     16319     16369     16370     16320     16319     16369     16371
     16320     16319     16369     16372     16321     16319     16369     16370
     16321     16319     16369     16371     16321     16319     16369     16372
     16322     16325     16328     16329     16322     16325     16328     16330
     16322     16325     16328     16331     16323     16322     16325     16326
     16323     16322     16325     16327     16323     16322     16325     16328
     16324     16322     16325     16326     16324     16322     16325     16327
     16324     16322     16325     16328     16325     16328     16331     16332
     16325     16328     16331     16333     16325     16328     16331     16334
     16326     16325     16328     16329     16326     16325     16328     16330
     16326     16325     16328     16331     16327     16325     16328     16329
     16327     16325     16328     16330     16327     16325     16328     16331
     16328     16331     16334     16335     16328     16331     16334     16336
     16328     16331     16334     16337     16329     16328     16331     16332
     16329     16328     16331     16333     16329     16328     16331     16334
     16330     16328     16331     16332     16330     16328     16331     16333
     16330     16328     16331     16334     16331     16334     16337     16338
     16331     16334     16337     16339     16331     16334     16337     16340
     16332     16331     16334     16335     16332     16331     16334     16336
     16332     16331     16334     16337     16333     16331     16334     16335
     16333     16331     16334     16336     16333     16331     16334     16337
     16334     16337     16340     16341     16334     16337     16340     16342
     16335     16334     16337     16338     16335     16334     16337     16339
     16335     16334     16337     16340     16336     16334     16337     16338
     16336     16334     16337     16339     16336     16334     16337     16340
     16337     16340     16342     16343     16337     16340     16342     16344
     16338     16337     16340     16341     16338     16337     16340     16342
     16339     16337     16340     16341     16339     16337     16340     16342
     16340     16342     16344     16345     16340     16342     16344     16346
     16340     16342     16344     16347     16341     16340     16342     16343
     16341     16340     16342     16344     16342     16344     16347     16348
     16342     16344     16347     16349     16342     16344     16347     16350
     16343     16342     16344     16345     16343     16342     16344     16346
     16343     16342     16344     16347     16344     16347     16350     16351
     16344     16347     16350     16352     16344     16347     16350     16353
     16345     16344     16347     16348     16345     16344     16347     16349
     16345     16344     16347     16350     16346     16344     16347     16348
     16346     16344     16347     16349     16346     16344     16347     16350
     16347     16350     16353     16354     16347     16350     16353     16355
     16347     16350     16353     16356     16348     16347     16350     16351
     16348     16347     16350     16352     16348     16347     16350     16353
     16349     16347     16350     16351     16349     16347     16350     16352
     16349     16347     16350     16353     16350     16353     16356     16357
     16350     16353     16356     16358     16350     16353     16356     16359
     16351     16350     16353     16354     16351     16350     16353     16355
     16351     16350     16353     16356     16352     16350     16353     16354
     16352     16350     16353     16355     16352     16350     16353     16356
     16353     16356     16359     16360     16353     16356     16359     16361
     16353     16356     16359     16362     16354     16353     16356     16357
     16354     16353     16356     16358     16354     16353     16356     16359
     16355     16353     16356     16357     16355     16353     16356     16358
     16355     16353     16356     16359     16356     16359     16362     16363
     16356     16359     16362     16364     16356     16359     16362     16365
     16357     16356     16359     16360     16357     16356     16359     16361
     16357     16356     16359     16362     16358     16356     16359     16360
     16358     16356     16359     16361     16358     16356     16359     16362
     16359     16362     16365     16366     16359     16362     16365     16367
     16359     16362     16365     16368     16360     16359     16362     16363
     16360     16359     16362     16364     16360     16359     16362     16365
     16361     16359     16362     16363     16361     16359     16362     16364
     16361     16359     16362     16365     16363     16362     16365     16366
     16363     16362     16365     16367     16363     16362     16365     16368
     16364     16362     16365     16366     16364     16362     16365     16367
     16364     16362     16365     16368     16369     16372     16375     16376
     16369     16372     16375     16377     16369     16372     16375     16378
     16370     16369     16372     16373     16370     16369     16372     16374
     16370     16369     16372     16375     16371     16369     16372     16373
     16371     16369     16372     16374     16371     16369     16372     16375
     16372     16375     16378     16379     16372     16375     16378     16380
     16372     16375     16378     16381     16373     16372     16375     16376
     16373     16372     16375     16377     16373     16372     16375     16378
     16374     16372     16375     16376     16374     16372     16375     16377
     16374     16372     16375     16378     16375     16378     16381     16382
     16375     16378     16381     16383     16375     16378     16381     16384
     16376     16375     16378     16379     16376     16375     16378     16380
     16376     16375     16378     16381     16377     16375     16378     16379
     16377     16375     16378     16380     16377     16375     16378     16381
     16378     16381     16384     16385     16378     16381     16384     16386
     16378     16381     16384     16387     16379     16378     16381     16382
     16379     16378     16381     16383     16379     16378     16381     16384
     16380     16378     16381     16382     16380     16378     16381     16383
     16380     16378     16381     16384     16381     16384     16387     16388
     16381     16384     16387     16389     16381     16384     16387     16390
     16382     16381     16384     16385     16382     16381     16384     16386
     16382     16381     16384     16387     16383     16381     16384     16385
     16383     16381     16384     16386     16383     16381     16384     16387
     16384     16387     16390     16391     16384     16387     16390     16392
     16384     16387     16390     16393     16385     16384     16387     16388
     16385     16384     16387     16389     16385     16384     16387     16390
     16386     16384     16387     16388     16386     16384     16387     16389
     16386     16384     16387     16390     16387     16390     16393     16394
     16387     16390     16393     16395     16387     16390     16393     16396
     16388     16387     16390     16391     16388     16387     16390     16392
     16388     16387     16390     16393     16389     16387     16390     16391
     16389     16387     16390     16392     16389     16387     16390     16393
     16390     16393     16396     16397     16390     16393     16396     16398
     16390     16393     16396     16399     16391     16390     16393     16394
     16391     16390     16393     16395     16391     16390     16393     16396
     16392     16390     16393     16394     16392     16390     16393     16395
     16392     16390     16393     16396     16393     16396     16399     16400
     16393     16396     16399     16401     16393     16396     16399     16402
     16394     16393     16396     16397     16394     16393     16396     16398
     16394     16393     16396     16399     16395     16393     16396     16397
     16395     16393     16396     16398     16395     16393     16396     16399
     16396     16399     16402     16403     16396     16399     16402     16404
     16396     16399     16402     16405     16397     16396     16399     16400
     16397     16396     16399     16401     16397     16396     16399     16402
     16398     16396     16399     16400     16398     16396     16399     16401
     16398     16396     16399     16402     16399     16402     16405     16406
     16399     16402     16405     16407     16399     16402     16405     16408
     16400     16399     16402     16403     16400     16399     16402     16404
     16400     16399     16402     16405     16401     16399     16402     16403
     16401     16399     16402     16404     16401     16399     16402     16405
     16402     16405     16408     16409     16402     16405     16408     16410
     16402     16405     16408     16411     16403     16402     16405     16406
     16403     16402     16405     16407     16403     16402     16405     16408
     16404     16402     16405     16406     16404     16402     16405     16407
     16404     16402     16405     16408     16406     16405     16408     16409
     16406     16405     16408     16410     16406     16405     16408     16411
     16407     16405     16408     16409     16407     16405     16408     16410
     16407     16405     16408     16411     16412     16416     16418     16419
     16412     16416     16418     16420     16412     16416     16421     16422
     16412     16416     16421     16423     16412     16416     16421     16427
     16413     16412     16416     16417     16413     16412     16416     16418
     16413     16412     16416     16421     16414     16412     16416     16417
     16414     16412     16416     16418     16414     16412     16416     16421
     16415     16412     16416     16417     16415     16412     16416     16418
     16415     16412     16416     16421     16416     16421     16427     16424
     16417     16416     16418     16419     16417     16416     16418     16420
     16417     16416     16421     16422     16417     16416     16421     16423
     16417     16416     16421     16427     16418     16416     16421     16422
     16418     16416     16421     16423     16418     16416     16421     16427
     16419     16418     16416     16421     16420     16418     16416     16421
     16421     16427     16424     16425     16421     16427     16424     16426
     16421     16427     16424     16428     16422     16421     16427     16424
     16423     16421     16427     16424     16424     16428     16429     16430
     16424     16428     16429     16431     16424     16428     16429     16432
     16425     16424     16428     16429     16426     16424     16428     16429
     16427     16424     16428     16429     16428     16429     16432     16433
     16428     16429     16432     16434     16428     16429     16432     16440
     16429     16432     16434     16435     16429     16432     16440     16441
     16429     16432     16440     16442     16429     16432     16440     16443
     16430     16429     16432     16433     16430     16429     16432     16434
     16430     16429     16432     16440     16431     16429     16432     16433
     16431     16429     16432     16434     16431     16429     16432     16440
     16432     16434     16435     16436     16432     16434     16435     16437
     16432     16440     16443     16444     16433     16432     16434     16435
     16433     16432     16440     16441     16433     16432     16440     16442
     16433     16432     16440     16443     16434     16432     16440     16441
     16434     16432     16440     16442     16434     16432     16440     16443
     16434     16435     16437     16438     16434     16435     16437     16439
     16434     16435     16437     16449     16435     16434     16432     16440
     16435     16437     16449     16450     16435     16437     16449     16451
     16435     16437     16449     16452     16436     16435     16437     16438
     16436     16435     16437     16439     16436     16435     16437     16449
     16437     16449     16452     16453     16437     16449     16452     16454
     16437     16449     16452     16455     16438     16437     16449     16450
     16438     16437     16449     16451     16438     16437     16449     16452
     16439     16437     16449     16450     16439     16437     16449     16451
     16439     16437     16449     16452     16440     16443     16444     16445
     16440     16443     16444     16446     16441     16440     16443     16444
     16442     16440     16443     16444     16443     16444     16446     16447
     16443     16444     16446     16448     16443     16444     16446     16496
     16444     16446     16496     16497     16444     16446     16496     16498
     16444     16446     16496     16499     16445     16444     16446     16447
     16445     16444     16446     16448     16445     16444     16446     16496
     16446     16496     16499     16500     16446     16496     16499     16501
     16446     16496     16499     16502     16447     16446     16496     16497
     16447     16446     16496     16498     16447     16446     16496     16499
     16448     16446     16496     16497     16448     16446     16496     16498
     16448     16446     16496     16499     16449     16452     16455     16456
     16449     16452     16455     16457     16449     16452     16455     16458
     16450     16449     16452     16453     16450     16449     16452     16454
     16450     16449     16452     16455     16451     16449     16452     16453
     16451     16449     16452     16454     16451     16449     16452     16455
     16452     16455     16458     16459     16452     16455     16458     16460
     16452     16455     16458     16461     16453     16452     16455     16456
     16453     16452     16455     16457     16453     16452     16455     16458
     16454     16452     16455     16456     16454     16452     16455     16457
     16454     16452     16455     16458     16455     16458     16461     16462
     16455     16458     16461     16463     16455     16458     16461     16464
     16456     16455     16458     16459     16456     16455     16458     16460
     16456     16455     16458     16461     16457     16455     16458     16459
     16457     16455     16458     16460     16457     16455     16458     16461
     16458     16461     16464     16465     16458     16461     16464     16466
     16458     16461     16464     16467     16459     16458     16461     16462
     16459     16458     16461     16463     16459     16458     16461     16464
     16460     16458     16461     16462     16460     16458     16461     16463
     16460     16458     16461     16464     16461     16464     16467     16468
     16461     16464     16467     16469     16462     16461     16464     16465
     16462     16461     16464     16466     16462     16461     16464     16467
     16463     16461     16464     16465     16463     16461     16464     16466
     16463     16461     16464     16467     16464     16467     16469     16470
     16464     16467     16469     16471     16465     16464     16467     16468
     16465     16464     16467     16469     16466     16464     16467     16468
     16466     16464     16467     16469     16467     16469     16471     16472
     16467     16469     16471     16473     16467     16469     16471     16474
     16468     16467     16469     16470     16468     16467     16469     16471
     16469     16471     16474     16475     16469     16471     16474     16476
     16469     16471     16474     16477     16470     16469     16471     16472
     16470     16469     16471     16473     16470     16469     16471     16474
     16471     16474     16477     16478     16471     16474     16477     16479
     16471     16474     16477     16480     16472     16471     16474     16475
     16472     16471     16474     16476     16472     16471     16474     16477
     16473     16471     16474     16475     16473     16471     16474     16476
     16473     16471     16474     16477     16474     16477     16480     16481
     16474     16477     16480     16482     16474     16477     16480     16483
     16475     16474     16477     16478     16475     16474     16477     16479
     16475     16474     16477     16480     16476     16474     16477     16478
     16476     16474     16477     16479     16476     16474     16477     16480
     16477     16480     16483     16484     16477     16480     16483     16485
     16477     16480     16483     16486     16478     16477     16480     16481
     16478     16477     16480     16482     16478     16477     16480     16483
     16479     16477     16480     16481     16479     16477     16480     16482
     16479     16477     16480     16483     16480     16483     16486     16487
     16480     16483     16486     16488     16480     16483     16486     16489
     16481     16480     16483     16484     16481     16480     16483     16485
     16481     16480     16483     16486     16482     16480     16483     16484
     16482     16480     16483     16485     16482     16480     16483     16486
     16483     16486     16489     16490     16483     16486     16489     16491
     16483     16486     16489     16492     16484     16483     16486     16487
     16484     16483     16486     16488     16484     16483     16486     16489
     16485     16483     16486     16487     16485     16483     16486     16488
     16485     16483     16486     16489     16486     16489     16492     16493
     16486     16489     16492     16494     16486     16489     16492     16495
     16487     16486     16489     16490     16487     16486     16489     16491
     16487     16486     16489     16492     16488     16486     16489     16490
     16488     16486     16489     16491     16488     16486     16489     16492
     16490     16489     16492     16493     16490     16489     16492     16494
     16490     16489     16492     16495     16491     16489     16492     16493
     16491     16489     16492     16494     16491     16489     16492     16495
     16496     16499     16502     16503     16496     16499     16502     16504
     16496     16499     16502     16505     16497     16496     16499     16500
     16497     16496     16499     16501     16497     16496     16499     16502
     16498     16496     16499     16500     16498     16496     16499     16501
     16498     16496     16499     16502     16499     16502     16505     16506
     16499     16502     16505     16507     16499     16502     16505     16508
     16500     16499     16502     16503     16500     16499     16502     16504
     16500     16499     16502     16505     16501     16499     16502     16503
     16501     16499     16502     16504     16501     16499     16502     16505
     16502     16505     16508     16509     16502     16505     16508     16510
     16502     16505     16508     16511     16503     16502     16505     16506
     16503     16502     16505     16507     16503     16502     16505     16508
     16504     16502     16505     16506     16504     16502     16505     16507
     16504     16502     16505     16508     16505     16508     16511     16512
     16505     16508     16511     16513     16505     16508     16511     16514
     16506     16505     16508     16509     16506     16505     16508     16510
     16506     16505     16508     16511     16507     16505     16508     16509
     16507     16505     16508     16510     16507     16505     16508     16511
     16508     16511     16514     16515     16508     16511     16514     16516
     16508     16511     16514     16517     16509     16508     16511     16512
     16509     16508     16511     16513     16509     16508     16511     16514
     16510     16508     16511     16512     16510     16508     16511     16513
     16510     16508     16511     16514     16511     16514     16517     16518
     16511     16514     16517     16519     16511     16514     16517     16520
     16512     16511     16514     16515     16512     16511     16514     16516
     16512     16511     16514     16517     16513     16511     16514     16515
     16513     16511     16514     16516     16513     16511     16514     16517
     16514     16517     16520     16521     16514     16517     16520     16522
     16514     16517     16520     16523     16515     16514     16517     16518
     16515     16514     16517     16519     16515     16514     16517     16520
     16516     16514     16517     16518     16516     16514     16517     16519
     16516     16514     16517     16520     16517     16520     16523     16524
     16517     16520     16523     16525     16517     16520     16523     16526
     16518     16517     16520     16521     16518     16517     16520     16522
     16518     16517     16520     16523     16519     16517     16520     16521
     16519     16517     16520     16522     16519     16517     16520     16523
     16520     16523     16526     16527     16520     16523     16526     16528
     16520     16523     16526     16529     16521     16520     16523     16524
     16521     16520     16523     16525     16521     16520     16523     16526
     16522     16520     16523     16524     16522     16520     16523     16525
     16522     16520     16523     16526     16523     16526     16529     16530
     16523     16526     16529     16531     16523     16526     16529     16532
     16524     16523     16526     16527     16524     16523     16526     16528
     16524     16523     16526     16529     16525     16523     16526     16527
     16525     16523     16526     16528     16525     16523     16526     16529
     16526     16529     16532     16533     16526     16529     16532     16534
     16526     16529     16532     16535     16527     16526     16529     16530
     16527     16526     16529     16531     16527     16526     16529     16532
     16528     16526     16529     16530     16528     16526     16529     16531
     16528     16526     16529     16532     16529     16532     16535     16536
     16529     16532     16535     16537     16529     16532     16535     16538
     16530     16529     16532     16533     16530     16529     16532     16534
     16530     16529     16532     16535     16531     16529     16532     16533
     16531     16529     16532     16534     16531     16529     16532     16535
     16533     16532     16535     16536     16533     16532     16535     16537
     16533     16532     16535     16538     16534     16532     16535     16536
     16534     16532     16535     16537     16534     16532     16535     16538
     16539     16540     16555     16556     16539     16540     16555     16557
     16539     16540     16555     16561     16540     16539     16543     16544
     16540     16539     16543     16545     16540     16539     16543     16546
     16540     16539     16547     16548     16540     16539     16547     16549
     16540     16539     16547     16550     16540     16539     16551     16552
     16540     16539     16551     16553     16540     16539     16551     16554
     16540     16555     16561     16558     16541     16540     16539     16543
     16541     16540     16539     16547     16541     16540     16539     16551
     16541     16540     16555     16556     16541     16540     16555     16557
     16541     16540     16555     16561     16542     16540     16539     16543
     16542     16540     16539     16547     16542     16540     16539     16551
     16542     16540     16555     16556     16542     16540     16555     16557
     16542     16540     16555     16561     16543     16539     16540     16555
     16543     16539     16547     16548     16543     16539     16547     16549
     16543     16539     16547     16550     16543     16539     16551     16552
     16543     16539     16551     16553     16543     16539     16551     16554
     16544     16543     16539     16547     16544     16543     16539     16551
     16545     16543     16539     16547     16545     16543     16539     16551
     16546     16543     16539     16547     16546     16543     16539     16551
     16547     16539     16540     16555     16547     16539     16551     16552
     16547     16539     16551     16553     16547     16539     16551     16554
     16548     16547     16539     16551     16549     16547     16539     16551
     16550     16547     16539     16551     16551     16539     16540     16555
     16555     16561     16558     16559     16555     16561     16558     16560
     16555     16561     16558     16562     16556     16555     16561     16558
     16557     16555     16561     16558     16558     16562     16563     16564
     16558     16562     16563     16565     16558     16562     16563     16566
     16559     16558     16562     16563     16560     16558     16562     16563
     16561     16558     16562     16563     16562     16563     16566     16567
     16562     16563     16566     16568     16562     16563     16566     16574
     16563     16566     16568     16569     16563     16566     16574     16575
     16563     16566     16574     16576     16563     16566     16574     16577
     16564     16563     16566     16567     16564     16563     16566     16568
     16564     16563     16566     16574     16565     16563     16566     16567
     16565     16563     16566     16568     16565     16563     16566     16574
     16566     16568     16569     16570     16566     16568     16569     16571
     16566     16574     16577     16578     16567     16566     16568     16569
     16567     16566     16574     16575     16567     16566     16574     16576
     16567     16566     16574     16577     16568     16566     16574     16575
     16568     16566     16574     16576     16568     16566     16574     16577
     16568     16569     16571     16572     16568     16569     16571     16573
     16568     16569     16571     16583     16569     16568     16566     16574
     16569     16571     16583     16584     16569     16571     16583     16585
     16569     16571     16583     16586     16570     16569     16571     16572
     16570     16569     16571     16573     16570     16569     16571     16583
     16571     16583     16586     16587     16571     16583     16586     16588
     16571     16583     16586     16589     16572     16571     16583     16584
     16572     16571     16583     16585     16572     16571     16583     16586
     16573     16571     16583     16584     16573     16571     16583     16585
     16573     16571     16583     16586     16574     16577     16578     16579
     16574     16577     16578     16580     16575     16574     16577     16578
     16576     16574     16577     16578     16577     16578     16580     16581
     16577     16578     16580     16582     16577     16578     16580     16630
     16578     16580     16630     16631     16578     16580     16630     16632
     16578     16580     16630     16633     16579     16578     16580     16581
     16579     16578     16580     16582     16579     16578     16580     16630
     16580     16630     16633     16634     16580     16630     16633     16635
     16580     16630     16633     16636     16581     16580     16630     16631
     16581     16580     16630     16632     16581     16580     16630     16633
     16582     16580     16630     16631     16582     16580     16630     16632
     16582     16580     16630     16633     16583     16586     16589     16590
     16583     16586     16589     16591     16583     16586     16589     16592
     16584     16583     16586     16587     16584     16583     16586     16588
     16584     16583     16586     16589     16585     16583     16586     16587
     16585     16583     16586     16588     16585     16583     16586     16589
     16586     16589     16592     16593     16586     16589     16592     16594
     16586     16589     16592     16595     16587     16586     16589     16590
     16587     16586     16589     16591     16587     16586     16589     16592
     16588     16586     16589     16590     16588     16586     16589     16591
     16588     16586     16589     16592     16589     16592     16595     16596
     16589     16592     16595     16597     16589     16592     16595     16598
     16590     16589     16592     16593     16590     16589     16592     16594
     16590     16589     16592     16595     16591     16589     16592     16593
     16591     16589     16592     16594     16591     16589     16592     16595
     16592     16595     16598     16599     16592     16595     16598     16600
     16592     16595     16598     16601     16593     16592     16595     16596
     16593     16592     16595     16597     16593     16592     16595     16598
     16594     16592     16595     16596     16594     16592     16595     16597
     16594     16592     16595     16598     16595     16598     16601     16602
     16595     16598     16601     16603     16596     16595     16598     16599
     16596     16595     16598     16600     16596     16595     16598     16601
     16597     16595     16598     16599     16597     16595     16598     16600
     16597     16595     16598     16601     16598     16601     16603     16604
     16598     16601     16603     16605     16599     16598     16601     16602
     16599     16598     16601     16603     16600     16598     16601     16602
     16600     16598     16601     16603     16601     16603     16605     16606
     16601     16603     16605     16607     16601     16603     16605     16608
     16602     16601     16603     16604     16602     16601     16603     16605
     16603     16605     16608     16609     16603     16605     16608     16610
     16603     16605     16608     16611     16604     16603     16605     16606
     16604     16603     16605     16607     16604     16603     16605     16608
     16605     16608     16611     16612     16605     16608     16611     16613
     16605     16608     16611     16614     16606     16605     16608     16609
     16606     16605     16608     16610     16606     16605     16608     16611
     16607     16605     16608     16609     16607     16605     16608     16610
     16607     16605     16608     16611     16608     16611     16614     16615
     16608     16611     16614     16616     16608     16611     16614     16617
     16609     16608     16611     16612     16609     16608     16611     16613
     16609     16608     16611     16614     16610     16608     16611     16612
     16610     16608     16611     16613     16610     16608     16611     16614
     16611     16614     16617     16618     16611     16614     16617     16619
     16611     16614     16617     16620     16612     16611     16614     16615
     16612     16611     16614     16616     16612     16611     16614     16617
     16613     16611     16614     16615     16613     16611     16614     16616
     16613     16611     16614     16617     16614     16617     16620     16621
     16614     16617     16620     16622     16614     16617     16620     16623
     16615     16614     16617     16618     16615     16614     16617     16619
     16615     16614     16617     16620     16616     16614     16617     16618
     16616     16614     16617     16619     16616     16614     16617     16620
     16617     16620     16623     16624     16617     16620     16623     16625
     16617     16620     16623     16626     16618     16617     16620     16621
     16618     16617     16620     16622     16618     16617     16620     16623
     16619     16617     16620     16621     16619     16617     16620     16622
     16619     16617     16620     16623     16620     16623     16626     16627
     16620     16623     16626     16628     16620     16623     16626     16629
     16621     16620     16623     16624     16621     16620     16623     16625
     16621     16620     16623     16626     16622     16620     16623     16624
     16622     16620     16623     16625     16622     16620     16623     16626
     16624     16623     16626     16627     16624     16623     16626     16628
     16624     16623     16626     16629     16625     16623     16626     16627
     16625     16623     16626     16628     16625     16623     16626     16629
     16630     16633     16636     16637     16630     16633     16636     16638
     16630     16633     16636     16639     16631     16630     16633     16634
     16631     16630     16633     16635     16631     16630     16633     16636
     16632     16630     16633     16634     16632     16630     16633     16635
     16632     16630     16633     16636     16633     16636     16639     16640
     16633     16636     16639     16641     16633     16636     16639     16642
     16634     16633     16636     16637     16634     16633     16636     16638
     16634     16633     16636     16639     16635     16633     16636     16637
     16635     16633     16636     16638     16635     16633     16636     16639
     16636     16639     16642     16643     16636     16639     16642     16644
     16636     16639     16642     16645     16637     16636     16639     16640
     16637     16636     16639     16641     16637     16636     16639     16642
     16638     16636     16639     16640     16638     16636     16639     16641
     16638     16636     16639     16642     16639     16642     16645     16646
     16639     16642     16645     16647     16639     16642     16645     16648
     16640     16639     16642     16643     16640     16639     16642     16644
     16640     16639     16642     16645     16641     16639     16642     16643
     16641     16639     16642     16644     16641     16639     16642     16645
     16642     16645     16648     16649     16642     16645     16648     16650
     16642     16645     16648     16651     16643     16642     16645     16646
     16643     16642     16645     16647     16643     16642     16645     16648
     16644     16642     16645     16646     16644     16642     16645     16647
     16644     16642     16645     16648     16645     16648     16651     16652
     16645     16648     16651     16653     16645     16648     16651     16654
     16646     16645     16648     16649     16646     16645     16648     16650
     16646     16645     16648     16651     16647     16645     16648     16649
     16647     16645     16648     16650     16647     16645     16648     16651
     16648     16651     16654     16655     16648     16651     16654     16656
     16648     16651     16654     16657     16649     16648     16651     16652
     16649     16648     16651     16653     16649     16648     16651     16654
     16650     16648     16651     16652     16650     16648     16651     16653
     16650     16648     16651     16654     16651     16654     16657     16658
     16651     16654     16657     16659     16651     16654     16657     16660
     16652     16651     16654     16655     16652     16651     16654     16656
     16652     16651     16654     16657     16653     16651     16654     16655
     16653     16651     16654     16656     16653     16651     16654     16657
     16654     16657     16660     16661     16654     16657     16660     16662
     16654     16657     16660     16663     16655     16654     16657     16658
     16655     16654     16657     16659     16655     16654     16657     16660
     16656     16654     16657     16658     16656     16654     16657     16659
     16656     16654     16657     16660     16657     16660     16663     16664
     16657     16660     16663     16665     16657     16660     16663     16666
     16658     16657     16660     16661     16658     16657     16660     16662
     16658     16657     16660     16663     16659     16657     16660     16661
     16659     16657     16660     16662     16659     16657     16660     16663
     16660     16663     16666     16667     16660     16663     16666     16668
     16660     16663     16666     16669     16661     16660     16663     16664
     16661     16660     16663     16665     16661     16660     16663     16666
     16662     16660     16663     16664     16662     16660     16663     16665
     16662     16660     16663     16666     16663     16666     16669     16670
     16663     16666     16669     16671     16663     16666     16669     16672
     16664     16663     16666     16667     16664     16663     16666     16668
     16664     16663     16666     16669     16665     16663     16666     16667
     16665     16663     16666     16668     16665     16663     16666     16669
     16667     16666     16669     16670     16667     16666     16669     16671
     16667     16666     16669     16672     16668     16666     16669     16670
     16668     16666     16669     16671     16668     16666     16669     16672
     16673     16674     16689     16690     16673     16674     16689     16691
     16673     16674     16689     16695     16674     16673     16677     16678
     16674     16673     16677     16679     16674     16673     16677     16680
     16674     16673     16681     16682     16674     16673     16681     16683
     16674     16673     16681     16684     16674     16673     16685     16686
     16674     16673     16685     16687     16674     16673     16685     16688
     16674     16689     16695     16692     16675     16674     16673     16677
     16675     16674     16673     16681     16675     16674     16673     16685
     16675     16674     16689     16690     16675     16674     16689     16691
     16675     16674     16689     16695     16676     16674     16673     16677
     16676     16674     16673     16681     16676     16674     16673     16685
     16676     16674     16689     16690     16676     16674     16689     16691
     16676     16674     16689     16695     16677     16673     16674     16689
     16677     16673     16681     16682     16677     16673     16681     16683
     16677     16673     16681     16684     16677     16673     16685     16686
     16677     16673     16685     16687     16677     16673     16685     16688
     16678     16677     16673     16681     16678     16677     16673     16685
     16679     16677     16673     16681     16679     16677     16673     16685
     16680     16677     16673     16681     16680     16677     16673     16685
     16681     16673     16674     16689     16681     16673     16685     16686
     16681     16673     16685     16687     16681     16673     16685     16688
     16682     16681     16673     16685     16683     16681     16673     16685
     16684     16681     16673     16685     16685     16673     16674     16689
     16689     16695     16692     16693     16689     16695     16692     16694
     16689     16695     16692     16696     16690     16689     16695     16692
     16691     16689     16695     16692     16692     16696     16697     16698
     16692     16696     16697     16699     16692     16696     16697     16700
     16693     16692     16696     16697     16694     16692     16696     16697
     16695     16692     16696     16697     16696     16697     16700     16701
     16696     16697     16700     16702     16696     16697     16700     16708
     16697     16700     16702     16703     16697     16700     16708     16709
     16697     16700     16708     16710     16697     16700     16708     16711
     16698     16697     16700     16701     16698     16697     16700     16702
     16698     16697     16700     16708     16699     16697     16700     16701
     16699     16697     16700     16702     16699     16697     16700     16708
     16700     16702     16703     16704     16700     16702     16703     16705
     16700     16708     16711     16712     16701     16700     16702     16703
     16701     16700     16708     16709     16701     16700     16708     16710
     16701     16700     16708     16711     16702     16700     16708     16709
     16702     16700     16708     16710     16702     16700     16708     16711
     16702     16703     16705     16706     16702     16703     16705     16707
     16702     16703     16705     16717     16703     16702     16700     16708
     16703     16705     16717     16718     16703     16705     16717     16719
     16703     16705     16717     16720     16704     16703     16705     16706
     16704     16703     16705     16707     16704     16703     16705     16717
     16705     16717     16720     16721     16705     16717     16720     16722
     16705     16717     16720     16723     16706     16705     16717     16718
     16706     16705     16717     16719     16706     16705     16717     16720
     16707     16705     16717     16718     16707     16705     16717     16719
     16707     16705     16717     16720     16708     16711     16712     16713
     16708     16711     16712     16714     16709     16708     16711     16712
     16710     16708     16711     16712     16711     16712     16714     16715
     16711     16712     16714     16716     16711     16712     16714     16764
     16712     16714     16764     16765     16712     16714     16764     16766
     16712     16714     16764     16767     16713     16712     16714     16715
     16713     16712     16714     16716     16713     16712     16714     16764
     16714     16764     16767     16768     16714     16764     16767     16769
     16714     16764     16767     16770     16715     16714     16764     16765
     16715     16714     16764     16766     16715     16714     16764     16767
     16716     16714     16764     16765     16716     16714     16764     16766
     16716     16714     16764     16767     16717     16720     16723     16724
     16717     16720     16723     16725     16717     16720     16723     16726
     16718     16717     16720     16721     16718     16717     16720     16722
     16718     16717     16720     16723     16719     16717     16720     16721
     16719     16717     16720     16722     16719     16717     16720     16723
     16720     16723     16726     16727     16720     16723     16726     16728
     16720     16723     16726     16729     16721     16720     16723     16724
     16721     16720     16723     16725     16721     16720     16723     16726
     16722     16720     16723     16724     16722     16720     16723     16725
     16722     16720     16723     16726     16723     16726     16729     16730
     16723     16726     16729     16731     16723     16726     16729     16732
     16724     16723     16726     16727     16724     16723     16726     16728
     16724     16723     16726     16729     16725     16723     16726     16727
     16725     16723     16726     16728     16725     16723     16726     16729
     16726     16729     16732     16733     16726     16729     16732     16734
     16726     16729     16732     16735     16727     16726     16729     16730
     16727     16726     16729     16731     16727     16726     16729     16732
     16728     16726     16729     16730     16728     16726     16729     16731
     16728     16726     16729     16732     16729     16732     16735     16736
     16729     16732     16735     16737     16730     16729     16732     16733
     16730     16729     16732     16734     16730     16729     16732     16735
     16731     16729     16732     16733     16731     16729     16732     16734
     16731     16729     16732     16735     16732     16735     16737     16738
     16732     16735     16737     16739     16733     16732     16735     16736
     16733     16732     16735     16737     16734     16732     16735     16736
     16734     16732     16735     16737     16735     16737     16739     16740
     16735     16737     16739     16741     16735     16737     16739     16742
     16736     16735     16737     16738     16736     16735     16737     16739
     16737     16739     16742     16743     16737     16739     16742     16744
     16737     16739     16742     16745     16738     16737     16739     16740
     16738     16737     16739     16741     16738     16737     16739     16742
     16739     16742     16745     16746     16739     16742     16745     16747
     16739     16742     16745     16748     16740     16739     16742     16743
     16740     16739     16742     16744     16740     16739     16742     16745
     16741     16739     16742     16743     16741     16739     16742     16744
     16741     16739     16742     16745     16742     16745     16748     16749
     16742     16745     16748     16750     16742     16745     16748     16751
     16743     16742     16745     16746     16743     16742     16745     16747
     16743     16742     16745     16748     16744     16742     16745     16746
     16744     16742     16745     16747     16744     16742     16745     16748
     16745     16748     16751     16752     16745     16748     16751     16753
     16745     16748     16751     16754     16746     16745     16748     16749
     16746     16745     16748     16750     16746     16745     16748     16751
     16747     16745     16748     16749     16747     16745     16748     16750
     16747     16745     16748     16751     16748     16751     16754     16755
     16748     16751     16754     16756     16748     16751     16754     16757
     16749     16748     16751     16752     16749     16748     16751     16753
     16749     16748     16751     16754     16750     16748     16751     16752
     16750     16748     16751     16753     16750     16748     16751     16754
     16751     16754     16757     16758     16751     16754     16757     16759
     16751     16754     16757     16760     16752     16751     16754     16755
     16752     16751     16754     16756     16752     16751     16754     16757
     16753     16751     16754     16755     16753     16751     16754     16756
     16753     16751     16754     16757     16754     16757     16760     16761
     16754     16757     16760     16762     16754     16757     16760     16763
     16755     16754     16757     16758     16755     16754     16757     16759
     16755     16754     16757     16760     16756     16754     16757     16758
     16756     16754     16757     16759     16756     16754     16757     16760
     16758     16757     16760     16761     16758     16757     16760     16762
     16758     16757     16760     16763     16759     16757     16760     16761
     16759     16757     16760     16762     16759     16757     16760     16763
     16764     16767     16770     16771     16764     16767     16770     16772
     16764     16767     16770     16773     16765     16764     16767     16768
     16765     16764     16767     16769     16765     16764     16767     16770
     16766     16764     16767     16768     16766     16764     16767     16769
     16766     16764     16767     16770     16767     16770     16773     16774
     16767     16770     16773     16775     16767     16770     16773     16776
     16768     16767     16770     16771     16768     16767     16770     16772
     16768     16767     16770     16773     16769     16767     16770     16771
     16769     16767     16770     16772     16769     16767     16770     16773
     16770     16773     16776     16777     16770     16773     16776     16778
     16770     16773     16776     16779     16771     16770     16773     16774
     16771     16770     16773     16775     16771     16770     16773     16776
     16772     16770     16773     16774     16772     16770     16773     16775
     16772     16770     16773     16776     16773     16776     16779     16780
     16773     16776     16779     16781     16773     16776     16779     16782
     16774     16773     16776     16777     16774     16773     16776     16778
     16774     16773     16776     16779     16775     16773     16776     16777
     16775     16773     16776     16778     16775     16773     16776     16779
     16776     16779     16782     16783     16776     16779     16782     16784
     16776     16779     16782     16785     16777     16776     16779     16780
     16777     16776     16779     16781     16777     16776     16779     16782
     16778     16776     16779     16780     16778     16776     16779     16781
     16778     16776     16779     16782     16779     16782     16785     16786
     16779     16782     16785     16787     16779     16782     16785     16788
     16780     16779     16782     16783     16780     16779     16782     16784
     16780     16779     16782     16785     16781     16779     16782     16783
     16781     16779     16782     16784     16781     16779     16782     16785
     16782     16785     16788     16789     16782     16785     16788     16790
     16782     16785     16788     16791     16783     16782     16785     16786
     16783     16782     16785     16787     16783     16782     16785     16788
     16784     16782     16785     16786     16784     16782     16785     16787
     16784     16782     16785     16788     16785     16788     16791     16792
     16785     16788     16791     16793     16785     16788     16791     16794
     16786     16785     16788     16789     16786     16785     16788     16790
     16786     16785     16788     16791     16787     16785     16788     16789
     16787     16785     16788     16790     16787     16785     16788     16791
     16788     16791     16794     16795     16788     16791     16794     16796
     16788     16791     16794     16797     16789     16788     16791     16792
     16789     16788     16791     16793     16789     16788     16791     16794
     16790     16788     16791     16792     16790     16788     16791     16793
     16790     16788     16791     16794     16791     16794     16797     16798
     16791     16794     16797     16799     16791     16794     16797     16800
     16792     16791     16794     16795     16792     16791     16794     16796
     16792     16791     16794     16797     16793     16791     16794     16795
     16793     16791     16794     16796     16793     16791     16794     16797
     16794     16797     16800     16801     16794     16797     16800     16802
     16794     16797     16800     16803     16795     16794     16797     16798
     16795     16794     16797     16799     16795     16794     16797     16800
     16796     16794     16797     16798     16796     16794     16797     16799
     16796     16794     16797     16800     16797     16800     16803     16804
     16797     16800     16803     16805     16797     16800     16803     16806
     16798     16797     16800     16801     16798     16797     16800     16802
     16798     16797     16800     16803     16799     16797     16800     16801
     16799     16797     16800     16802     16799     16797     16800     16803
     16801     16800     16803     16804     16801     16800     16803     16805
     16801     16800     16803     16806     16802     16800     16803     16804
     16802     16800     16803     16805     16802     16800     16803     16806
     16807     16808     16823     16824     16807     16808     16823     16825
     16807     16808     16823     16829     16808     16807     16811     16812
     16808     16807     16811     16813     16808     16807     16811     16814
     16808     16807     16815     16816     16808     16807     16815     16817
     16808     16807     16815     16818     16808     16807     16819     16820
     16808     16807     16819     16821     16808     16807     16819     16822
     16808     16823     16829     16826     16809     16808     16807     16811
     16809     16808     16807     16815     16809     16808     16807     16819
     16809     16808     16823     16824     16809     16808     16823     16825
     16809     16808     16823     16829     16810     16808     16807     16811
     16810     16808     16807     16815     16810     16808     16807     16819
     16810     16808     16823     16824     16810     16808     16823     16825
     16810     16808     16823     16829     16811     16807     16808     16823
     16811     16807     16815     16816     16811     16807     16815     16817
     16811     16807     16815     16818     16811     16807     16819     16820
     16811     16807     16819     16821     16811     16807     16819     16822
     16812     16811     16807     16815     16812     16811     16807     16819
     16813     16811     16807     16815     16813     16811     16807     16819
     16814     16811     16807     16815     16814     16811     16807     16819
     16815     16807     16808     16823     16815     16807     16819     16820
     16815     16807     16819     16821     16815     16807     16819     16822
     16816     16815     16807     16819     16817     16815     16807     16819
     16818     16815     16807     16819     16819     16807     16808     16823
     16823     16829     16826     16827     16823     16829     16826     16828
     16823     16829     16826     16830     16824     16823     16829     16826
     16825     16823     16829     16826     16826     16830     16831     16832
     16826     16830     16831     16833     16826     16830     16831     16834
     16827     16826     16830     16831     16828     16826     16830     16831
     16829     16826     16830     16831     16830     16831     16834     16835
     16830     16831     16834     16836     16830     16831     16834     16842
     16831     16834     16836     16837     16831     16834     16842     16843
     16831     16834     16842     16844     16831     16834     16842     16845
     16832     16831     16834     16835     16832     16831     16834     16836
     16832     16831     16834     16842     16833     16831     16834     16835
     16833     16831     16834     16836     16833     16831     16834     16842
     16834     16836     16837     16838     16834     16836     16837     16839
     16834     16842     16845     16846     16835     16834     16836     16837
     16835     16834     16842     16843     16835     16834     16842     16844
     16835     16834     16842     16845     16836     16834     16842     16843
     16836     16834     16842     16844     16836     16834     16842     16845
     16836     16837     16839     16840     16836     16837     16839     16841
     16836     16837     16839     16851     16837     16836     16834     16842
     16837     16839     16851     16852     16837     16839     16851     16853
     16837     16839     16851     16854     16838     16837     16839     16840
     16838     16837     16839     16841     16838     16837     16839     16851
     16839     16851     16854     16855     16839     16851     16854     16856
     16839     16851     16854     16857     16840     16839     16851     16852
     16840     16839     16851     16853     16840     16839     16851     16854
     16841     16839     16851     16852     16841     16839     16851     16853
     16841     16839     16851     16854     16842     16845     16846     16847
     16842     16845     16846     16848     16843     16842     16845     16846
     16844     16842     16845     16846     16845     16846     16848     16849
     16845     16846     16848     16850     16845     16846     16848     16898
     16846     16848     16898     16899     16846     16848     16898     16900
     16846     16848     16898     16901     16847     16846     16848     16849
     16847     16846     16848     16850     16847     16846     16848     16898
     16848     16898     16901     16902     16848     16898     16901     16903
     16848     16898     16901     16904     16849     16848     16898     16899
     16849     16848     16898     16900     16849     16848     16898     16901
     16850     16848     16898     16899     16850     16848     16898     16900
     16850     16848     16898     16901     16851     16854     16857     16858
     16851     16854     16857     16859     16851     16854     16857     16860
     16852     16851     16854     16855     16852     16851     16854     16856
     16852     16851     16854     16857     16853     16851     16854     16855
     16853     16851     16854     16856     16853     16851     16854     16857
     16854     16857     16860     16861     16854     16857     16860     16862
     16854     16857     16860     16863     16855     16854     16857     16858
     16855     16854     16857     16859     16855     16854     16857     16860
     16856     16854     16857     16858     16856     16854     16857     16859
     16856     16854     16857     16860     16857     16860     16863     16864
     16857     16860     16863     16865     16857     16860     16863     16866
     16858     16857     16860     16861     16858     16857     16860     16862
     16858     16857     16860     16863     16859     16857     16860     16861
     16859     16857     16860     16862     16859     16857     16860     16863
     16860     16863     16866     16867     16860     16863     16866     16868
     16860     16863     16866     16869     16861     16860     16863     16864
     16861     16860     16863     16865     16861     16860     16863     16866
     16862     16860     16863     16864     16862     16860     16863     16865
     16862     16860     16863     16866     16863     16866     16869     16870
     16863     16866     16869     16871     16864     16863     16866     16867
     16864     16863     16866     16868     16864     16863     16866     16869
     16865     16863     16866     16867     16865     16863     16866     16868
     16865     16863     16866     16869     16866     16869     16871     16872
     16866     16869     16871     16873     16867     16866     16869     16870
     16867     16866     16869     16871     16868     16866     16869     16870
     16868     16866     16869     16871     16869     16871     16873     16874
     16869     16871     16873     16875     16869     16871     16873     16876
     16870     16869     16871     16872     16870     16869     16871     16873
     16871     16873     16876     16877     16871     16873     16876     16878
     16871     16873     16876     16879     16872     16871     16873     16874
     16872     16871     16873     16875     16872     16871     16873     16876
     16873     16876     16879     16880     16873     16876     16879     16881
     16873     16876     16879     16882     16874     16873     16876     16877
     16874     16873     16876     16878     16874     16873     16876     16879
     16875     16873     16876     16877     16875     16873     16876     16878
     16875     16873     16876     16879     16876     16879     16882     16883
     16876     16879     16882     16884     16876     16879     16882     16885
     16877     16876     16879     16880     16877     16876     16879     16881
     16877     16876     16879     16882     16878     16876     16879     16880
     16878     16876     16879     16881     16878     16876     16879     16882
     16879     16882     16885     16886     16879     16882     16885     16887
     16879     16882     16885     16888     16880     16879     16882     16883
     16880     16879     16882     16884     16880     16879     16882     16885
     16881     16879     16882     16883     16881     16879     16882     16884
     16881     16879     16882     16885     16882     16885     16888     16889
     16882     16885     16888     16890     16882     16885     16888     16891
     16883     16882     16885     16886     16883     16882     16885     16887
     16883     16882     16885     16888     16884     16882     16885     16886
     16884     16882     16885     16887     16884     16882     16885     16888
     16885     16888     16891     16892     16885     16888     16891     16893
     16885     16888     16891     16894     16886     16885     16888     16889
     16886     16885     16888     16890     16886     16885     16888     16891
     16887     16885     16888     16889     16887     16885     16888     16890
     16887     16885     16888     16891     16888     16891     16894     16895
     16888     16891     16894     16896     16888     16891     16894     16897
     16889     16888     16891     16892     16889     16888     16891     16893
     16889     16888     16891     16894     16890     16888     16891     16892
     16890     16888     16891     16893     16890     16888     16891     16894
     16892     16891     16894     16895     16892     16891     16894     16896
     16892     16891     16894     16897     16893     16891     16894     16895
     16893     16891     16894     16896     16893     16891     16894     16897
     16898     16901     16904     16905     16898     16901     16904     16906
     16898     16901     16904     16907     16899     16898     16901     16902
     16899     16898     16901     16903     16899     16898     16901     16904
     16900     16898     16901     16902     16900     16898     16901     16903
     16900     16898     16901     16904     16901     16904     16907     16908
     16901     16904     16907     16909     16901     16904     16907     16910
     16902     16901     16904     16905     16902     16901     16904     16906
     16902     16901     16904     16907     16903     16901     16904     16905
     16903     16901     16904     16906     16903     16901     16904     16907
     16904     16907     16910     16911     16904     16907     16910     16912
     16904     16907     16910     16913     16905     16904     16907     16908
     16905     16904     16907     16909     16905     16904     16907     16910
     16906     16904     16907     16908     16906     16904     16907     16909
     16906     16904     16907     16910     16907     16910     16913     16914
     16907     16910     16913     16915     16907     16910     16913     16916
     16908     16907     16910     16911     16908     16907     16910     16912
     16908     16907     16910     16913     16909     16907     16910     16911
     16909     16907     16910     16912     16909     16907     16910     16913
     16910     16913     16916     16917     16910     16913     16916     16918
     16910     16913     16916     16919     16911     16910     16913     16914
     16911     16910     16913     16915     16911     16910     16913     16916
     16912     16910     16913     16914     16912     16910     16913     16915
     16912     16910     16913     16916     16913     16916     16919     16920
     16913     16916     16919     16921     16913     16916     16919     16922
     16914     16913     16916     16917     16914     16913     16916     16918
     16914     16913     16916     16919     16915     16913     16916     16917
     16915     16913     16916     16918     16915     16913     16916     16919
     16916     16919     16922     16923     16916     16919     16922     16924
     16916     16919     16922     16925     16917     16916     16919     16920
     16917     16916     16919     16921     16917     16916     16919     16922
     16918     16916     16919     16920     16918     16916     16919     16921
     16918     16916     16919     16922     16919     16922     16925     16926
     16919     16922     16925     16927     16919     16922     16925     16928
     16920     16919     16922     16923     16920     16919     16922     16924
     16920     16919     16922     16925     16921     16919     16922     16923
     16921     16919     16922     16924     16921     16919     16922     16925
     16922     16925     16928     16929     16922     16925     16928     16930
     16922     16925     16928     16931     16923     16922     16925     16926
     16923     16922     16925     16927     16923     16922     16925     16928
     16924     16922     16925     16926     16924     16922     16925     16927
     16924     16922     16925     16928     16925     16928     16931     16932
     16925     16928     16931     16933     16925     16928     16931     16934
     16926     16925     16928     16929     16926     16925     16928     16930
     16926     16925     16928     16931     16927     16925     16928     16929
     16927     16925     16928     16930     16927     16925     16928     16931
     16928     16931     16934     16935     16928     16931     16934     16936
     16928     16931     16934     16937     16929     16928     16931     16932
     16929     16928     16931     16933     16929     16928     16931     16934
     16930     16928     16931     16932     16930     16928     16931     16933
     16930     16928     16931     16934     16931     16934     16937     16938
     16931     16934     16937     16939     16931     16934     16937     16940
     16932     16931     16934     16935     16932     16931     16934     16936
     16932     16931     16934     16937     16933     16931     16934     16935
     16933     16931     16934     16936     16933     16931     16934     16937
     16935     16934     16937     16938     16935     16934     16937     16939
     16935     16934     16937     16940     16936     16934     16937     16938
     16936     16934     16937     16939     16936     16934     16937     16940
     16941     16945     16947     16948     16941     16945     16947     16949
     16941     16945     16950     16951     16941     16945     16950     16952
     16941     16945     16950     16956     16942     16941     16945     16946
     16942     16941     16945     16947     16942     16941     16945     16950
     16943     16941     16945     16946     16943     16941     16945     16947
     16943     16941     16945     16950     16944     16941     16945     16946
     16944     16941     16945     16947     16944     16941     16945     16950
     16945     16950     16956     16953     16946     16945     16947     16948
     16946     16945     16947     16949     16946     16945     16950     16951
     16946     16945     16950     16952     16946     16945     16950     16956
     16947     16945     16950     16951     16947     16945     16950     16952
     16947     16945     16950     16956     16948     16947     16945     16950
     16949     16947     16945     16950     16950     16956     16953     16954
     16950     16956     16953     16955     16950     16956     16953     16957
     16951     16950     16956     16953     16952     16950     16956     16953
     16953     16957     16958     16959     16953     16957     16958     16960
     16953     16957     16958     16961     16954     16953     16957     16958
     16955     16953     16957     16958     16956     16953     16957     16958
     16957     16958     16961     16962     16957     16958     16961     16963
     16957     16958     16961     16969     16958     16961     16963     16964
     16958     16961     16969     16970     16958     16961     16969     16971
     16958     16961     16969     16972     16959     16958     16961     16962
     16959     16958     16961     16963     16959     16958     16961     16969
     16960     16958     16961     16962     16960     16958     16961     16963
     16960     16958     16961     16969     16961     16963     16964     16965
     16961     16963     16964     16966     16961     16969     16972     16973
     16962     16961     16963     16964     16962     16961     16969     16970
     16962     16961     16969     16971     16962     16961     16969     16972
     16963     16961     16969     16970     16963     16961     16969     16971
     16963     16961     16969     16972     16963     16964     16966     16967
     16963     16964     16966     16968     16963     16964     16966     16978
     16964     16963     16961     16969     16964     16966     16978     16979
     16964     16966     16978     16980     16964     16966     16978     16981
     16965     16964     16966     16967     16965     16964     16966     16968
     16965     16964     16966     16978     16966     16978     16981     16982
     16966     16978     16981     16983     16966     16978     16981     16984
     16967     16966     16978     16979     16967     16966     16978     16980
     16967     16966     16978     16981     16968     16966     16978     16979
     16968     16966     16978     16980     16968     16966     16978     16981
     16969     16972     16973     16974     16969     16972     16973     16975
     16970     16969     16972     16973     16971     16969     16972     16973
     16972     16973     16975     16976     16972     16973     16975     16977
     16972     16973     16975     17025     16973     16975     17025     17026
     16973     16975     17025     17027     16973     16975     17025     17028
     16974     16973     16975     16976     16974     16973     16975     16977
     16974     16973     16975     17025     16975     17025     17028     17029
     16975     17025     17028     17030     16975     17025     17028     17031
     16976     16975     17025     17026     16976     16975     17025     17027
     16976     16975     17025     17028     16977     16975     17025     17026
     16977     16975     17025     17027     16977     16975     17025     17028
     16978     16981     16984     16985     16978     16981     16984     16986
     16978     16981     16984     16987     16979     16978     16981     16982
     16979     16978     16981     16983     16979     16978     16981     16984
     16980     16978     16981     16982     16980     16978     16981     16983
     16980     16978     16981     16984     16981     16984     16987     16988
     16981     16984     16987     16989     16981     16984     16987     16990
     16982     16981     16984     16985     16982     16981     16984     16986
     16982     16981     16984     16987     16983     16981     16984     16985
     16983     16981     16984     16986     16983     16981     16984     16987
     16984     16987     16990     16991     16984     16987     16990     16992
     16984     16987     16990     16993     16985     16984     16987     16988
     16985     16984     16987     16989     16985     16984     16987     16990
     16986     16984     16987     16988     16986     16984     16987     16989
     16986     16984     16987     16990     16987     16990     16993     16994
     16987     16990     16993     16995     16987     16990     16993     16996
     16988     16987     16990     16991     16988     16987     16990     16992
     16988     16987     16990     16993     16989     16987     16990     16991
     16989     16987     16990     16992     16989     16987     16990     16993
     16990     16993     16996     16997     16990     16993     16996     16998
     16991     16990     16993     16994     16991     16990     16993     16995
     16991     16990     16993     16996     16992     16990     16993     16994
     16992     16990     16993     16995     16992     16990     16993     16996
     16993     16996     16998     16999     16993     16996     16998     17000
     16994     16993     16996     16997     16994     16993     16996     16998
     16995     16993     16996     16997     16995     16993     16996     16998
     16996     16998     17000     17001     16996     16998     17000     17002
     16996     16998     17000     17003     16997     16996     16998     16999
     16997     16996     16998     17000     16998     17000     17003     17004
     16998     17000     17003     17005     16998     17000     17003     17006
     16999     16998     17000     17001     16999     16998     17000     17002
     16999     16998     17000     17003     17000     17003     17006     17007
     17000     17003     17006     17008     17000     17003     17006     17009
     17001     17000     17003     17004     17001     17000     17003     17005
     17001     17000     17003     17006     17002     17000     17003     17004
     17002     17000     17003     17005     17002     17000     17003     17006
     17003     17006     17009     17010     17003     17006     17009     17011
     17003     17006     17009     17012     17004     17003     17006     17007
     17004     17003     17006     17008     17004     17003     17006     17009
     17005     17003     17006     17007     17005     17003     17006     17008
     17005     17003     17006     17009     17006     17009     17012     17013
     17006     17009     17012     17014     17006     17009     17012     17015
     17007     17006     17009     17010     17007     17006     17009     17011
     17007     17006     17009     17012     17008     17006     17009     17010
     17008     17006     17009     17011     17008     17006     17009     17012
     17009     17012     17015     17016     17009     17012     17015     17017
     17009     17012     17015     17018     17010     17009     17012     17013
     17010     17009     17012     17014     17010     17009     17012     17015
     17011     17009     17012     17013     17011     17009     17012     17014
     17011     17009     17012     17015     17012     17015     17018     17019
     17012     17015     17018     17020     17012     17015     17018     17021
     17013     17012     17015     17016     17013     17012     17015     17017
     17013     17012     17015     17018     17014     17012     17015     17016
     17014     17012     17015     17017     17014     17012     17015     17018
     17015     17018     17021     17022     17015     17018     17021     17023
     17015     17018     17021     17024     17016     17015     17018     17019
     17016     17015     17018     17020     17016     17015     17018     17021
     17017     17015     17018     17019     17017     17015     17018     17020
     17017     17015     17018     17021     17019     17018     17021     17022
     17019     17018     17021     17023     17019     17018     17021     17024
     17020     17018     17021     17022     17020     17018     17021     17023
     17020     17018     17021     17024     17025     17028     17031     17032
     17025     17028     17031     17033     17025     17028     17031     17034
     17026     17025     17028     17029     17026     17025     17028     17030
     17026     17025     17028     17031     17027     17025     17028     17029
     17027     17025     17028     17030     17027     17025     17028     17031
     17028     17031     17034     17035     17028     17031     17034     17036
     17028     17031     17034     17037     17029     17028     17031     17032
     17029     17028     17031     17033     17029     17028     17031     17034
     17030     17028     17031     17032     17030     17028     17031     17033
     17030     17028     17031     17034     17031     17034     17037     17038
     17031     17034     17037     17039     17031     17034     17037     17040
     17032     17031     17034     17035     17032     17031     17034     17036
     17032     17031     17034     17037     17033     17031     17034     17035
     17033     17031     17034     17036     17033     17031     17034     17037
     17034     17037     17040     17041     17034     17037     17040     17042
     17034     17037     17040     17043     17035     17034     17037     17038
     17035     17034     17037     17039     17035     17034     17037     17040
     17036     17034     17037     17038     17036     17034     17037     17039
     17036     17034     17037     17040     17037     17040     17043     17044
     17037     17040     17043     17045     17037     17040     17043     17046
     17038     17037     17040     17041     17038     17037     17040     17042
     17038     17037     17040     17043     17039     17037     17040     17041
     17039     17037     17040     17042     17039     17037     17040     17043
     17040     17043     17046     17047     17040     17043     17046     17048
     17040     17043     17046     17049     17041     17040     17043     17044
     17041     17040     17043     17045     17041     17040     17043     17046
     17042     17040     17043     17044     17042     17040     17043     17045
     17042     17040     17043     17046     17043     17046     17049     17050
     17043     17046     17049     17051     17043     17046     17049     17052
     17044     17043     17046     17047     17044     17043     17046     17048
     17044     17043     17046     17049     17045     17043     17046     17047
     17045     17043     17046     17048     17045     17043     17046     17049
     17046     17049     17052     17053     17046     17049     17052     17054
     17046     17049     17052     17055     17047     17046     17049     17050
     17047     17046     17049     17051     17047     17046     17049     17052
     17048     17046     17049     17050     17048     17046     17049     17051
     17048     17046     17049     17052     17049     17052     17055     17056
     17049     17052     17055     17057     17049     17052     17055     17058
     17050     17049     17052     17053     17050     17049     17052     17054
     17050     17049     17052     17055     17051     17049     17052     17053
     17051     17049     17052     17054     17051     17049     17052     17055
     17052     17055     17058     17059     17052     17055     17058     17060
     17052     17055     17058     17061     17053     17052     17055     17056
     17053     17052     17055     17057     17053     17052     17055     17058
     17054     17052     17055     17056     17054     17052     17055     17057
     17054     17052     17055     17058     17055     17058     17061     17062
     17055     17058     17061     17063     17055     17058     17061     17064
     17056     17055     17058     17059     17056     17055     17058     17060
     17056     17055     17058     17061     17057     17055     17058     17059
     17057     17055     17058     17060     17057     17055     17058     17061
     17058     17061     17064     17065     17058     17061     17064     17066
     17058     17061     17064     17067     17059     17058     17061     17062
     17059     17058     17061     17063     17059     17058     17061     17064
     17060     17058     17061     17062     17060     17058     17061     17063
     17060     17058     17061     17064     17062     17061     17064     17065
     17062     17061     17064     17066     17062     17061     17064     17067
     17063     17061     17064     17065     17063     17061     17064     17066
     17063     17061     17064     17067     17068     17069     17084     17085
     17068     17069     17084     17086     17068     17069     17084     17090
     17069     17068     17072     17073     17069     17068     17072     17074
     17069     17068     17072     17075     17069     17068     17076     17077
     17069     17068     17076     17078     17069     17068     17076     17079
     17069     17068     17080     17081     17069     17068     17080     17082
     17069     17068     17080     17083     17069     17084     17090     17087
     17070     17069     17068     17072     17070     17069     17068     17076
     17070     17069     17068     17080     17070     17069     17084     17085
     17070     17069     17084     17086     17070     17069     17084     17090
     17071     17069     17068     17072     17071     17069     17068     17076
     17071     17069     17068     17080     17071     17069     17084     17085
     17071     17069     17084     17086     17071     17069     17084     17090
     17072     17068     17069     17084     17072     17068     17076     17077
     17072     17068     17076     17078     17072     17068     17076     17079
     17072     17068     17080     17081     17072     17068     17080     17082
     17072     17068     17080     17083     17073     17072     17068     17076
     17073     17072     17068     17080     17074     17072     17068     17076
     17074     17072     17068     17080     17075     17072     17068     17076
     17075     17072     17068     17080     17076     17068     17069     17084
     17076     17068     17080     17081     17076     17068     17080     17082
     17076     17068     17080     17083     17077     17076     17068     17080
     17078     17076     17068     17080     17079     17076     17068     17080
     17080     17068     17069     17084     17084     17090     17087     17088
     17084     17090     17087     17089     17084     17090     17087     17091
     17085     17084     17090     17087     17086     17084     17090     17087
     17087     17091     17092     17093     17087     17091     17092     17094
     17087     17091     17092     17095     17088     17087     17091     17092
     17089     17087     17091     17092     17090     17087     17091     17092
     17091     17092     17095     17096     17091     17092     17095     17097
     17091     17092     17095     17103     17092     17095     17097     17098
     17092     17095     17103     17104     17092     17095     17103     17105
     17092     17095     17103     17106     17093     17092     17095     17096
     17093     17092     17095     17097     17093     17092     17095     17103
     17094     17092     17095     17096     17094     17092     17095     17097
     17094     17092     17095     17103     17095     17097     17098     17099
     17095     17097     17098     17100     17095     17103     17106     17107
     17096     17095     17097     17098     17096     17095     17103     17104
     17096     17095     17103     17105     17096     17095     17103     17106
     17097     17095     17103     17104     17097     17095     17103     17105
     17097     17095     17103     17106     17097     17098     17100     17101
     17097     17098     17100     17102     17097     17098     17100     17112
     17098     17097     17095     17103     17098     17100     17112     17113
     17098     17100     17112     17114     17098     17100     17112     17115
     17099     17098     17100     17101     17099     17098     17100     17102
     17099     17098     17100     17112     17100     17112     17115     17116
     17100     17112     17115     17117     17100     17112     17115     17118
     17101     17100     17112     17113     17101     17100     17112     17114
     17101     17100     17112     17115     17102     17100     17112     17113
     17102     17100     17112     17114     17102     17100     17112     17115
     17103     17106     17107     17108     17103     17106     17107     17109
     17104     17103     17106     17107     17105     17103     17106     17107
     17106     17107     17109     17110     17106     17107     17109     17111
     17106     17107     17109     17159     17107     17109     17159     17160
     17107     17109     17159     17161     17107     17109     17159     17162
     17108     17107     17109     17110     17108     17107     17109     17111
     17108     17107     17109     17159     17109     17159     17162     17163
     17109     17159     17162     17164     17109     17159     17162     17165
     17110     17109     17159     17160     17110     17109     17159     17161
     17110     17109     17159     17162     17111     17109     17159     17160
     17111     17109     17159     17161     17111     17109     17159     17162
     17112     17115     17118     17119     17112     17115     17118     17120
     17112     17115     17118     17121     17113     17112     17115     17116
     17113     17112     17115     17117     17113     17112     17115     17118
     17114     17112     17115     17116     17114     17112     17115     17117
     17114     17112     17115     17118     17115     17118     17121     17122
     17115     17118     17121     17123     17115     17118     17121     17124
     17116     17115     17118     17119     17116     17115     17118     17120
     17116     17115     17118     17121     17117     17115     17118     17119
     17117     17115     17118     17120     17117     17115     17118     17121
     17118     17121     17124     17125     17118     17121     17124     17126
     17118     17121     17124     17127     17119     17118     17121     17122
     17119     17118     17121     17123     17119     17118     17121     17124
     17120     17118     17121     17122     17120     17118     17121     17123
     17120     17118     17121     17124     17121     17124     17127     17128
     17121     17124     17127     17129     17121     17124     17127     17130
     17122     17121     17124     17125     17122     17121     17124     17126
     17122     17121     17124     17127     17123     17121     17124     17125
     17123     17121     17124     17126     17123     17121     17124     17127
     17124     17127     17130     17131     17124     17127     17130     17132
     17125     17124     17127     17128     17125     17124     17127     17129
     17125     17124     17127     17130     17126     17124     17127     17128
     17126     17124     17127     17129     17126     17124     17127     17130
     17127     17130     17132     17133     17127     17130     17132     17134
     17128     17127     17130     17131     17128     17127     17130     17132
     17129     17127     17130     17131     17129     17127     17130     17132
     17130     17132     17134     17135     17130     17132     17134     17136
     17130     17132     17134     17137     17131     17130     17132     17133
     17131     17130     17132     17134     17132     17134     17137     17138
     17132     17134     17137     17139     17132     17134     17137     17140
     17133     17132     17134     17135     17133     17132     17134     17136
     17133     17132     17134     17137     17134     17137     17140     17141
     17134     17137     17140     17142     17134     17137     17140     17143
     17135     17134     17137     17138     17135     17134     17137     17139
     17135     17134     17137     17140     17136     17134     17137     17138
     17136     17134     17137     17139     17136     17134     17137     17140
     17137     17140     17143     17144     17137     17140     17143     17145
     17137     17140     17143     17146     17138     17137     17140     17141
     17138     17137     17140     17142     17138     17137     17140     17143
     17139     17137     17140     17141     17139     17137     17140     17142
     17139     17137     17140     17143     17140     17143     17146     17147
     17140     17143     17146     17148     17140     17143     17146     17149
     17141     17140     17143     17144     17141     17140     17143     17145
     17141     17140     17143     17146     17142     17140     17143     17144
     17142     17140     17143     17145     17142     17140     17143     17146
     17143     17146     17149     17150     17143     17146     17149     17151
     17143     17146     17149     17152     17144     17143     17146     17147
     17144     17143     17146     17148     17144     17143     17146     17149
     17145     17143     17146     17147     17145     17143     17146     17148
     17145     17143     17146     17149     17146     17149     17152     17153
     17146     17149     17152     17154     17146     17149     17152     17155
     17147     17146     17149     17150     17147     17146     17149     17151
     17147     17146     17149     17152     17148     17146     17149     17150
     17148     17146     17149     17151     17148     17146     17149     17152
     17149     17152     17155     17156     17149     17152     17155     17157
     17149     17152     17155     17158     17150     17149     17152     17153
     17150     17149     17152     17154     17150     17149     17152     17155
     17151     17149     17152     17153     17151     17149     17152     17154
     17151     17149     17152     17155     17153     17152     17155     17156
     17153     17152     17155     17157     17153     17152     17155     17158
     17154     17152     17155     17156     17154     17152     17155     17157
     17154     17152     17155     17158     17159     17162     17165     17166
     17159     17162     17165     17167     17159     17162     17165     17168
     17160     17159     17162     17163     17160     17159     17162     17164
     17160     17159     17162     17165     17161     17159     17162     17163
     17161     17159     17162     17164     17161     17159     17162     17165
     17162     17165     17168     17169     17162     17165     17168     17170
     17162     17165     17168     17171     17163     17162     17165     17166
     17163     17162     17165     17167     17163     17162     17165     17168
     17164     17162     17165     17166     17164     17162     17165     17167
     17164     17162     17165     17168     17165     17168     17171     17172
     17165     17168     17171     17173     17165     17168     17171     17174
     17166     17165     17168     17169     17166     17165     17168     17170
     17166     17165     17168     17171     17167     17165     17168     17169
     17167     17165     17168     17170     17167     17165     17168     17171
     17168     17171     17174     17175     17168     17171     17174     17176
     17168     17171     17174     17177     17169     17168     17171     17172
     17169     17168     17171     17173     17169     17168     17171     17174
     17170     17168     17171     17172     17170     17168     17171     17173
     17170     17168     17171     17174     17171     17174     17177     17178
     17171     17174     17177     17179     17171     17174     17177     17180
     17172     17171     17174     17175     17172     17171     17174     17176
     17172     17171     17174     17177     17173     17171     17174     17175
     17173     17171     17174     17176     17173     17171     17174     17177
     17174     17177     17180     17181     17174     17177     17180     17182
     17174     17177     17180     17183     17175     17174     17177     17178
     17175     17174     17177     17179     17175     17174     17177     17180
     17176     17174     17177     17178     17176     17174     17177     17179
     17176     17174     17177     17180     17177     17180     17183     17184
     17177     17180     17183     17185     17177     17180     17183     17186
     17178     17177     17180     17181     17178     17177     17180     17182
     17178     17177     17180     17183     17179     17177     17180     17181
     17179     17177     17180     17182     17179     17177     17180     17183
     17180     17183     17186     17187     17180     17183     17186     17188
     17180     17183     17186     17189     17181     17180     17183     17184
     17181     17180     17183     17185     17181     17180     17183     17186
     17182     17180     17183     17184     17182     17180     17183     17185
     17182     17180     17183     17186     17183     17186     17189     17190
     17183     17186     17189     17191     17183     17186     17189     17192
     17184     17183     17186     17187     17184     17183     17186     17188
     17184     17183     17186     17189     17185     17183     17186     17187
     17185     17183     17186     17188     17185     17183     17186     17189
     17186     17189     17192     17193     17186     17189     17192     17194
     17186     17189     17192     17195     17187     17186     17189     17190
     17187     17186     17189     17191     17187     17186     17189     17192
     17188     17186     17189     17190     17188     17186     17189     17191
     17188     17186     17189     17192     17189     17192     17195     17196
     17189     17192     17195     17197     17189     17192     17195     17198
     17190     17189     17192     17193     17190     17189     17192     17194
     17190     17189     17192     17195     17191     17189     17192     17193
     17191     17189     17192     17194     17191     17189     17192     17195
     17192     17195     17198     17199     17192     17195     17198     17200
     17192     17195     17198     17201     17193     17192     17195     17196
     17193     17192     17195     17197     17193     17192     17195     17198
     17194     17192     17195     17196     17194     17192     17195     17197
     17194     17192     17195     17198     17196     17195     17198     17199
     17196     17195     17198     17200     17196     17195     17198     17201
     17197     17195     17198     17199     17197     17195     17198     17200
     17197     17195     17198     17201     17202     17203     17218     17219
     17202     17203     17218     17220     17202     17203     17218     17224
     17203     17202     17206     17207     17203     17202     17206     17208
     17203     17202     17206     17209     17203     17202     17210     17211
     17203     17202     17210     17212     17203     17202     17210     17213
     17203     17202     17214     17215     17203     17202     17214     17216
     17203     17202     17214     17217     17203     17218     17224     17221
     17204     17203     17202     17206     17204     17203     17202     17210
     17204     17203     17202     17214     17204     17203     17218     17219
     17204     17203     17218     17220     17204     17203     17218     17224
     17205     17203     17202     17206     17205     17203     17202     17210
     17205     17203     17202     17214     17205     17203     17218     17219
     17205     17203     17218     17220     17205     17203     17218     17224
     17206     17202     17203     17218     17206     17202     17210     17211
     17206     17202     17210     17212     17206     17202     17210     17213
     17206     17202     17214     17215     17206     17202     17214     17216
     17206     17202     17214     17217     17207     17206     17202     17210
     17207     17206     17202     17214     17208     17206     17202     17210
     17208     17206     17202     17214     17209     17206     17202     17210
     17209     17206     17202     17214     17210     17202     17203     17218
     17210     17202     17214     17215     17210     17202     17214     17216
     17210     17202     17214     17217     17211     17210     17202     17214
     17212     17210     17202     17214     17213     17210     17202     17214
     17214     17202     17203     17218     17218     17224     17221     17222
     17218     17224     17221     17223     17218     17224     17221     17225
     17219     17218     17224     17221     17220     17218     17224     17221
     17221     17225     17226     17227     17221     17225     17226     17228
     17221     17225     17226     17229     17222     17221     17225     17226
     17223     17221     17225     17226     17224     17221     17225     17226
     17225     17226     17229     17230     17225     17226     17229     17231
     17225     17226     17229     17237     17226     17229     17231     17232
     17226     17229     17237     17238     17226     17229     17237     17239
     17226     17229     17237     17240     17227     17226     17229     17230
     17227     17226     17229     17231     17227     17226     17229     17237
     17228     17226     17229     17230     17228     17226     17229     17231
     17228     17226     17229     17237     17229     17231     17232     17233
     17229     17231     17232     17234     17229     17237     17240     17241
     17230     17229     17231     17232     17230     17229     17237     17238
     17230     17229     17237     17239     17230     17229     17237     17240
     17231     17229     17237     17238     17231     17229     17237     17239
     17231     17229     17237     17240     17231     17232     17234     17235
     17231     17232     17234     17236     17231     17232     17234     17246
     17232     17231     17229     17237     17232     17234     17246     17247
     17232     17234     17246     17248     17232     17234     17246     17249
     17233     17232     17234     17235     17233     17232     17234     17236
     17233     17232     17234     17246     17234     17246     17249     17250
     17234     17246     17249     17251     17234     17246     17249     17252
     17235     17234     17246     17247     17235     17234     17246     17248
     17235     17234     17246     17249     17236     17234     17246     17247
     17236     17234     17246     17248     17236     17234     17246     17249
     17237     17240     17241     17242     17237     17240     17241     17243
     17238     17237     17240     17241     17239     17237     17240     17241
     17240     17241     17243     17244     17240     17241     17243     17245
     17240     17241     17243     17293     17241     17243     17293     17294
     17241     17243     17293     17295     17241     17243     17293     17296
     17242     17241     17243     17244     17242     17241     17243     17245
     17242     17241     17243     17293     17243     17293     17296     17297
     17243     17293     17296     17298     17243     17293     17296     17299
     17244     17243     17293     17294     17244     17243     17293     17295
     17244     17243     17293     17296     17245     17243     17293     17294
     17245     17243     17293     17295     17245     17243     17293     17296
     17246     17249     17252     17253     17246     17249     17252     17254
     17246     17249     17252     17255     17247     17246     17249     17250
     17247     17246     17249     17251     17247     17246     17249     17252
     17248     17246     17249     17250     17248     17246     17249     17251
     17248     17246     17249     17252     17249     17252     17255     17256
     17249     17252     17255     17257     17249     17252     17255     17258
     17250     17249     17252     17253     17250     17249     17252     17254
     17250     17249     17252     17255     17251     17249     17252     17253
     17251     17249     17252     17254     17251     17249     17252     17255
     17252     17255     17258     17259     17252     17255     17258     17260
     17252     17255     17258     17261     17253     17252     17255     17256
     17253     17252     17255     17257     17253     17252     17255     17258
     17254     17252     17255     17256     17254     17252     17255     17257
     17254     17252     17255     17258     17255     17258     17261     17262
     17255     17258     17261     17263     17255     17258     17261     17264
     17256     17255     17258     17259     17256     17255     17258     17260
     17256     17255     17258     17261     17257     17255     17258     17259
     17257     17255     17258     17260     17257     17255     17258     17261
     17258     17261     17264     17265     17258     17261     17264     17266
     17259     17258     17261     17262     17259     17258     17261     17263
     17259     17258     17261     17264     17260     17258     17261     17262
     17260     17258     17261     17263     17260     17258     17261     17264
     17261     17264     17266     17267     17261     17264     17266     17268
     17262     17261     17264     17265     17262     17261     17264     17266
     17263     17261     17264     17265     17263     17261     17264     17266
     17264     17266     17268     17269     17264     17266     17268     17270
     17264     17266     17268     17271     17265     17264     17266     17267
     17265     17264     17266     17268     17266     17268     17271     17272
     17266     17268     17271     17273     17266     17268     17271     17274
     17267     17266     17268     17269     17267     17266     17268     17270
     17267     17266     17268     17271     17268     17271     17274     17275
     17268     17271     17274     17276     17268     17271     17274     17277
     17269     17268     17271     17272     17269     17268     17271     17273
     17269     17268     17271     17274     17270     17268     17271     17272
     17270     17268     17271     17273     17270     17268     17271     17274
     17271     17274     17277     17278     17271     17274     17277     17279
     17271     17274     17277     17280     17272     17271     17274     17275
     17272     17271     17274     17276     17272     17271     17274     17277
     17273     17271     17274     17275     17273     17271     17274     17276
     17273     17271     17274     17277     17274     17277     17280     17281
     17274     17277     17280     17282     17274     17277     17280     17283
     17275     17274     17277     17278     17275     17274     17277     17279
     17275     17274     17277     17280     17276     17274     17277     17278
     17276     17274     17277     17279     17276     17274     17277     17280
     17277     17280     17283     17284     17277     17280     17283     17285
     17277     17280     17283     17286     17278     17277     17280     17281
     17278     17277     17280     17282     17278     17277     17280     17283
     17279     17277     17280     17281     17279     17277     17280     17282
     17279     17277     17280     17283     17280     17283     17286     17287
     17280     17283     17286     17288     17280     17283     17286     17289
     17281     17280     17283     17284     17281     17280     17283     17285
     17281     17280     17283     17286     17282     17280     17283     17284
     17282     17280     17283     17285     17282     17280     17283     17286
     17283     17286     17289     17290     17283     17286     17289     17291
     17283     17286     17289     17292     17284     17283     17286     17287
     17284     17283     17286     17288     17284     17283     17286     17289
     17285     17283     17286     17287     17285     17283     17286     17288
     17285     17283     17286     17289     17287     17286     17289     17290
     17287     17286     17289     17291     17287     17286     17289     17292
     17288     17286     17289     17290     17288     17286     17289     17291
     17288     17286     17289     17292     17293     17296     17299     17300
     17293     17296     17299     17301     17293     17296     17299     17302
     17294     17293     17296     17297     17294     17293     17296     17298
     17294     17293     17296     17299     17295     17293     17296     17297
     17295     17293     17296     17298     17295     17293     17296     17299
     17296     17299     17302     17303     17296     17299     17302     17304
     17296     17299     17302     17305     17297     17296     17299     17300
     17297     17296     17299     17301     17297     17296     17299     17302
     17298     17296     17299     17300     17298     17296     17299     17301
     17298     17296     17299     17302     17299     17302     17305     17306
     17299     17302     17305     17307     17299     17302     17305     17308
     17300     17299     17302     17303     17300     17299     17302     17304
     17300     17299     17302     17305     17301     17299     17302     17303
     17301     17299     17302     17304     17301     17299     17302     17305
     17302     17305     17308     17309     17302     17305     17308     17310
     17302     17305     17308     17311     17303     17302     17305     17306
     17303     17302     17305     17307     17303     17302     17305     17308
     17304     17302     17305     17306     17304     17302     17305     17307
     17304     17302     17305     17308     17305     17308     17311     17312
     17305     17308     17311     17313     17305     17308     17311     17314
     17306     17305     17308     17309     17306     17305     17308     17310
     17306     17305     17308     17311     17307     17305     17308     17309
     17307     17305     17308     17310     17307     17305     17308     17311
     17308     17311     17314     17315     17308     17311     17314     17316
     17308     17311     17314     17317     17309     17308     17311     17312
     17309     17308     17311     17313     17309     17308     17311     17314
     17310     17308     17311     17312     17310     17308     17311     17313
     17310     17308     17311     17314     17311     17314     17317     17318
     17311     17314     17317     17319     17311     17314     17317     17320
     17312     17311     17314     17315     17312     17311     17314     17316
     17312     17311     17314     17317     17313     17311     17314     17315
     17313     17311     17314     17316     17313     17311     17314     17317
     17314     17317     17320     17321     17314     17317     17320     17322
     17314     17317     17320     17323     17315     17314     17317     17318
     17315     17314     17317     17319     17315     17314     17317     17320
     17316     17314     17317     17318     17316     17314     17317     17319
     17316     17314     17317     17320     17317     17320     17323     17324
     17317     17320     17323     17325     17317     17320     17323     17326
     17318     17317     17320     17321     17318     17317     17320     17322
     17318     17317     17320     17323     17319     17317     17320     17321
     17319     17317     17320     17322     17319     17317     17320     17323
     17320     17323     17326     17327     17320     17323     17326     17328
     17320     17323     17326     17329     17321     17320     17323     17324
     17321     17320     17323     17325     17321     17320     17323     17326
     17322     17320     17323     17324     17322     17320     17323     17325
     17322     17320     17323     17326     17323     17326     17329     17330
     17323     17326     17329     17331     17323     17326     17329     17332
     17324     17323     17326     17327     17324     17323     17326     17328
     17324     17323     17326     17329     17325     17323     17326     17327
     17325     17323     17326     17328     17325     17323     17326     17329
     17326     17329     17332     17333     17326     17329     17332     17334
     17326     17329     17332     17335     17327     17326     17329     17330
     17327     17326     17329     17331     17327     17326     17329     17332
     17328     17326     17329     17330     17328     17326     17329     17331
     17328     17326     17329     17332     17330     17329     17332     17333
     17330     17329     17332     17334     17330     17329     17332     17335
     17331     17329     17332     17333     17331     17329     17332     17334
     17331     17329     17332     17335

       312 !NIMPHI: impropers
        15         5        17        16        10        12         7        11
        10         7        12        11        12        10        13        14
        12        10        14        13        17        15        19        18
        29        19        31        30        24        26        21        25
        24        21        26        25        26        24        27        28
        26        24        28        27        31        29        33        32
        53        33        55        54        46        47        50        44
        47        48        49        46        50        51        52        46
        55        53        59        56        67        59        69        68
        69        67        71        70        81        71        83        82
        76        78        73        77        76        73        78        77
        78        76        79        80        78        76        80        79
        83        81        87        84        95        87        97        96
       128       127       130       129       137       136       139       138
       262       261       264       263       271       270       273       272
       396       395       398       397       405       404       407       406
       530       529       532       531       539       538       541       540
       664       663       666       665       673       672       675       674
       798       797       800       799       807       806       809       808
       925       924       927       926       934       933       936       935
       908       906       910       909      1059      1058      1061      1060
      1068      1067      1070      1069      1193      1192      1195      1194
      1202      1201      1204      1203      1320      1319      1322      1321
      1329      1328      1331      1330      1303      1301      1305      1304
      1447      1446      1449      1448      1456      1455      1458      1457
      1430      1428      1432      1431      1581      1580      1583      1582
      1590      1589      1592      1591      1708      1707      1710      1709
      1717      1716      1719      1718      1691      1689      1693      1692
      1842      1841      1844      1843      1851      1850      1853      1852
      1976      1975      1978      1977      1985      1984      1987      1986
      2110      2109      2112      2111      2119      2118      2121      2120
      2244      2243      2246      2245      2253      2252      2255      2254
      2378      2377      2380      2379      2387      2386      2389      2388
      2512      2511      2514      2513      2521      2520      2523      2522
      2639      2638      2641      2640      2648      2647      2650      2649
      2622      2620      2624      2623      2766      2765      2768      2767
      2775      2774      2777      2776      2749      2747      2751      2750
      2900      2899      2902      2901      2909      2908      2911      2910
      3034      3033      3036      3035      3043      3042      3045      3044
      3161      3160      3163      3162      3170      3169      3172      3171
      3144      3142      3146      3145      3295      3294      3297      3296
      3304      3303      3306      3305      3429      3428      3431      3430
      3438      3437      3440      3439      3563      3562      3565      3564
      3572      3571      3574      3573      3690      3689      3692      3691
      3699      3698      3701      3700      3673      3671      3675      3674
      3824      3823      3826      3825      3833      3832      3835      3834
      3958      3957      3960      3959      3967      3966      3969      3968
      4085      4084      4087      4086      4094      4093      4096      4095
      4068      4066      4070      4069      4219      4218      4221      4220
      4228      4227      4230      4229      4353      4352      4355      4354
      4362      4361      4364      4363      4487      4486      4489      4488
      4496      4495      4498      4497      4621      4620      4623      4622
      4630      4629      4632      4631      4755      4754      4757      4756
      4764      4763      4766      4765      4889      4888      4891      4890
      4898      4897      4900      4899      5023      5022      5025      5024
      5032      5031      5034      5033      5157      5156      5159      5158
      5166      5165      5168      5167      5291      5290      5293      5292
      5300      5299      5302      5301      5425      5424      5427      5426
      5434      5433      5436      5435      5559      5558      5561      5560
      5568      5567      5570      5569      5693      5692      5695      5694
      5702      5701      5704      5703      5827      5826      5829      5828
      5836      5835      5838      5837      5961      5960      5963      5962
      5970      5969      5972      5971      6095      6094      6097      6096
      6104      6103      6106      6105      6229      6228      6231      6230
      6238      6237      6240      6239      6356      6355      6358      6357
      6365      6364      6367      6366      6339      6337      6341      6340
      6483      6482      6485      6484      6492      6491      6494      6493
      6466      6464      6468      6467      6617      6616      6619      6618
      6626      6625      6628      6627      6751      6750      6753      6752
      6760      6759      6762      6761      6885      6884      6887      6886
      6894      6893      6896      6895      7012      7011      7014      7013
      7021      7020      7023      7022      6995      6993      6997      6996
      7146      7145      7148      7147      7155      7154      7157      7156
      7280      7279      7282      7281      7289      7288      7291      7290
      7407      7406      7409      7408      7416      7415      7418      7417
      7390      7388      7392      7391      7541      7540      7543      7542
      7550      7549      7552      7551      7675      7674      7677      7676
      7684      7683      7686      7685      7809      7808      7811      7810
      7818      7817      7820      7819      7943      7942      7945      7944
      7952      7951      7954      7953      8077      8076      8079      8078
      8086      8085      8088      8087      8211      8210      8213      8212
      8220      8219      8222      8221      8345      8344      8347      8346
      8354      8353      8356      8355      8479      8478      8481      8480
      8488      8487      8490      8489      8613      8612      8615      8614
      8622      8621      8624      8623      8747      8746      8749      8748
      8756      8755      8758      8757      8881      8880      8883      8882
      8890      8889      8892      8891      9015      9014      9017      9016
      9024      9023      9026      9025      9149      9148      9151      9150
      9158      9157      9160      9159      9283      9282      9285      9284
      9292      9291      9294      9293      9417      9416      9419      9418
      9426      9425      9428      9427      9544      9543      9546      9545
      9553      9552      9555      9554      9527      9525      9529      9528
      9671      9670      9673      9672      9680      9679      9682      9681
      9654      9652      9656      9655      9805      9804      9807      9806
      9814      9813      9816      9815      9939      9938      9941      9940
      9948      9947      9950      9949     10073     10072     10075     10074
     10082     10081     10084     10083     10207     10206     10209     10208
     10216     10215     10218     10217     10341     10340     10343     10342
     10350     10349     10352     10351     10475     10474     10477     10476
     10484     10483     10486     10485     10609     10608     10611     10610
     10618     10617     10620     10619     10743     10742     10745     10744
     10752     10751     10754     10753     10877     10876     10879     10878
     10886     10885     10888     10887     11011     11010     11013     11012
     11020     11019     11022     11021     11145     11144     11147     11146
     11154     11153     11156     11155     11279     11278     11281     11280
     11288     11287     11290     11289     11413     11412     11415     11414
     11422     11421     11424     11423     11547     11546     11549     11548
     11556     11555     11558     11557     11681     11680     11683     11682
     11690     11689     11692     11691     11815     11814     11817     11816
     11824     11823     11826     11825     11949     11948     11951     11950
     11958     11957     11960     11959     12076     12075     12078     12077
     12085     12084     12087     12086     12059     12057     12061     12060
     12210     12209     12212     12211     12219     12218     12221     12220
     12337     12336     12339     12338     12346     12345     12348     12347
     12320     12318     12322     12321     12471     12470     12473     12472
     12480     12479     12482     12481     12605     12604     12607     12606
     12614     12613     12616     12615     12739     12738     12741     12740
     12748     12747     12750     12749     12873     12872     12875     12874
     12882     12881     12884     12883     13007     13006     13009     13008
     13016     13015     13018     13017     13141     13140     13143     13142
     13150     13149     13152     13151     13275     13274     13277     13276
     13284     13283     13286     13285     13409     13408     13411     13410
     13418     13417     13420     13419     13543     13542     13545     13544
     13552     13551     13554     13553     13670     13669     13672     13671
     13679     13678     13681     13680     13653     13651     13655     13654
     13804     13803     13806     13805     13813     13812     13815     13814
     13938     13937     13940     13939     13947     13946     13949     13948
     14065     14064     14067     14066     14074     14073     14076     14075
     14048     14046     14050     14049     14199     14198     14201     14200
     14208     14207     14210     14209     14333     14332     14335     14334
     14342     14341     14344     14343     14467     14466     14469     14468
     14476     14475     14478     14477     14594     14593     14596     14595
     14603     14602     14605     14604     14577     14575     14579     14578
     14721     14720     14723     14722     14730     14729     14732     14731
     14704     14702     14706     14705     14855     14854     14857     14856
     14864     14863     14866     14865     14989     14988     14991     14990
     14998     14997     15000     14999     15123     15122     15125     15124
     15132     15131     15134     15133     15257     15256     15259     15258
     15266     15265     15268     15267     15384     15383     15386     15385
     15393     15392     15395     15394     15367     15365     15369     15368
     15511     15510     15513     15512     15520     15519     15522     15521
     15494     15492     15496     15495     15645     15644     15647     15646
     15654     15653     15656     15655     15779     15778     15781     15780
     15788     15787     15790     15789     15913     15912     15915     15914
     15922     15921     15924     15923     16040     16039     16042     16041
     16049     16048     16051     16050     16023     16021     16025     16024
     16174     16173     16176     16175     16183     16182     16185     16184
     16308     16307     16310     16309     16317     16316     16319     16318
     16435     16434     16437     16436     16444     16443     16446     16445
     16418     16416     16420     16419     16569     16568     16571     16570
     16578     16577     16580     16579     16703     16702     16705     16704
     16712     16711     16714     16713     16837     16836     16839     16838
     16846     16845     16848     16847     16964     16963     16966     16965
     16973     16972     16975     16974     16947     16945     16949     16948
     17098     17097     17100     17099     17107     17106     17109     17108
     17232     17231     17234     17233     17241     17240     17243     17242

     11927 !NDON: donors
         1         2         1         3         1         4        12        13
        12        14        17        18        26        27        26        28
        31        32        44        45        47        48        47        49
        50        51        50        52        69        70        78        79
        78        80     17336     17337     17336     17338     17339     17340
     17339     17341     17342     17343     17342     17344     17345     17346
     17345     17347     17348     17349     17348     17350     17351     17352
     17351     17353     17354     17355     17354     17356     17357     17358
     17357     17359     17360     17361     17360     17362     17363     17364
     17363     17365     17366     17367     17366     17368     17369     17370
     17369     17371     17372     17373     17372     17374     17375     17376
     17375     17377     17378     17379     17378     17380     17381     17382
     17381     17383     17384     17385     17384     17386     17387     17388
     17387     17389     17390     17391     17390     17392     17393     17394
     17393     17395     17396     17397     17396     17398     17399     17400
     17399     17401     17402     17403     17402     17404     17405     17406
     17405     17407     17408     17409     17408     17410     17411     17412
     17411     17413     17414     17415     17414     17416     17417     17418
     17417     17419     17420     17421     17420     17422     17423     17424
     17423     17425     17426     17427     17426     17428     17429     17430
     17429     17431     17432     17433     17432     17434     17435     17436
     17435     17437     17438     17439     17438     17440     17441     17442
     17441     17443     17444     17445     17444     17446     17447     17448
     17447     17449     17450     17451     17450     17452     17453     17454
     17453     17455     17456     17457     17456     17458     17459     17460
     17459     17461     17462     17463     17462     17464     17465     17466
     17465     17467     17468     17469     17468     17470     17471     17472
     17471     17473     17474     17475     17474     17476     17477     17478
     17477     17479     17480     17481     17480     17482     17483     17484
     17483     17485     17486     17487     17486     17488     17489     17490
     17489     17491     17492     17493     17492     17494     17495     17496
     17495     17497     17498     17499     17498     17500     17501     17502
     17501     17503     17504     17505     17504     17506     17507     17508
     17507     17509     17510     17511     17510     17512     17513     17514
     17513     17515     17516     17517     17516     17518     17519     17520
     17519     17521     17522     17523     17522     17524     17525     17526
     17525     17527     17528     17529     17528     17530     17531     17532
     17531     17533     17534     17535     17534     17536     17537     17538
     17537     17539     17540     17541     17540     17542     17543     17544
     17543     17545     17546     17547     17546     17548     17549     17550
     17549     17551     17552     17553     17552     17554     17555     17556
     17555     17557     17558     17559     17558     17560     17561     17562
     17561     17563     17564     17565     17564     17566     17567     17568
     17567     17569     17570     17571     17570     17572     17573     17574
     17573     17575     17576     17577     17576     17578     17579     17580
     17579     17581     17582     17583     17582     17584     17585     17586
     17585     17587     17588     17589     17588     17590     17591     17592
     17591     17593     17594     17595     17594     17596     17597     17598
     17597     17599     17600     17601     17600     17602     17603     17604
     17603     17605     17606     17607     17606     17608     17609     17610
     17609     17611     17612     17613     17612     17614     17615     17616
     17615     17617     17618     17619     17618     17620     17621     17622
     17621     17623     17624     17625     17624     17626     17627     17628
     17627     17629     17630     17631     17630     17632     17633     17634
     17633     17635     17636     17637     17636     17638     17639     17640
     17639     17641     17642     17643     17642     17644     17645     17646
     17645     17647     17648     17649     17648     17650     17651     17652
     17651     17653     17654     17655     17654     17656     17657     17658
     17657     17659     17660     17661     17660     17662     17663     17664
     17663     17665     17666     17667     17666     17668     17669     17670
     17669     17671     17672     17673     17672     17674     17675     17676
     17675     17677     17678     17679     17678     17680     17681     17682
     17681     17683     17684     17685     17684     17686     17687     17688
     17687     17689     17690     17691     17690     17692     17693     17694
     17693     17695     17696     17697     17696     17698     17699     17700
     17699     17701     17702     17703     17702     17704     17705     17706
     17705     17707     17708     17709     17708     17710     17711     17712
     17711     17713     17714     17715     17714     17716     17717     17718
     17717     17719     17720     17721     17720     17722     17723     17724
     17723     17725     17726     17727     17726     17728     17729     17730
     17729     17731     17732     17733     17732     17734     17735     17736
     17735     17737     17738     17739     17738     17740     17741     17742
     17741     17743     17744     17745     17744     17746     17747     17748
     17747     17749     17750     17751     17750     17752     17753     17754
     17753     17755     17756     17757     17756     17758     17759     17760
     17759     17761     17762     17763     17762     17764     17765     17766
     17765     17767     17768     17769     17768     17770     17771     17772
     17771     17773     17774     17775     17774     17776     17777     17778
     17777     17779     17780     17781     17780     17782     17783     17784
     17783     17785     17786     17787     17786     17788     17789     17790
     17789     17791     17792     17793     17792     17794     17795     17796
     17795     17797     17798     17799     17798     17800     17801     17802
     17801     17803     17804     17805     17804     17806     17807     17808
     17807     17809     17810     17811     17810     17812     17813     17814
     17813     17815     17816     17817     17816     17818     17819     17820
     17819     17821     17822     17823     17822     17824     17825     17826
     17825     17827     17828     17829     17828     17830     17831     17832
     17831     17833     17834     17835     17834     17836     17837     17838
     17837     17839     17840     17841     17840     17842     17843     17844
     17843     17845     17846     17847     17846     17848     17849     17850
     17849     17851     17852     17853     17852     17854     17855     17856
     17855     17857     17858     17859     17858     17860     17861     17862
     17861     17863     17864     17865     17864     17866     17867     17868
     17867     17869     17870     17871     17870     17872     17873     17874
     17873     17875     17876     17877     17876     17878     17879     17880
     17879     17881     17882     17883     17882     17884     17885     17886
     17885     17887     17888     17889     17888     17890     17891     17892
     17891     17893     17894     17895     17894     17896     17897     17898
     17897     17899     17900     17901     17900     17902     17903     17904
     17903     17905     17906     17907     17906     17908     17909     17910
     17909     17911     17912     17913     17912     17914     17915     17916
     17915     17917     17918     17919     17918     17920     17921     17922
     17921     17923     17924     17925     17924     17926     17927     17928
     17927     17929     17930     17931     17930     17932     17933     17934
     17933     17935     17936     17937     17936     17938     17939     17940
     17939     17941     17942     17943     17942     17944     17945     17946
     17945     17947     17948     17949     17948     17950     17951     17952
     17951     17953     17954     17955     17954     17956     17957     17958
     17957     17959     17960     17961     17960     17962     17963     17964
     17963     17965     17966     17967     17966     17968     17969     17970
     17969     17971     17972     17973     17972     17974     17975     17976
     17975     17977     17978     17979     17978     17980     17981     17982
     17981     17983     17984     17985     17984     17986     17987     17988
     17987     17989     17990     17991     17990     17992     17993     17994
     17993     17995     17996     17997     17996     17998     17999     18000
     17999     18001     18002     18003     18002     18004     18005     18006
     18005     18007     18008     18009     18008     18010     18011     18012
     18011     18013     18014     18015     18014     18016     18017     18018
     18017     18019     18020     18021     18020     18022     18023     18024
     18023     18025     18026     18027     18026     18028     18029     18030
     18029     18031     18032     18033     18032     18034     18035     18036
     18035     18037     18038     18039     18038     18040     18041     18042
     18041     18043     18044     18045     18044     18046     18047     18048
     18047     18049     18050     18051     18050     18052     18053     18054
     18053     18055     18056     18057     18056     18058     18059     18060
     18059     18061     18062     18063     18062     18064     18065     18066
     18065     18067     18068     18069     18068     18070     18071     18072
     18071     18073     18074     18075     18074     18076     18077     18078
     18077     18079     18080     18081     18080     18082     18083     18084
     18083     18085     18086     18087     18086     18088     18089     18090
     18089     18091     18092     18093     18092     18094     18095     18096
     18095     18097     18098     18099     18098     18100     18101     18102
     18101     18103     18104     18105     18104     18106     18107     18108
     18107     18109     18110     18111     18110     18112     18113     18114
     18113     18115     18116     18117     18116     18118     18119     18120
     18119     18121     18122     18123     18122     18124     18125     18126
     18125     18127     18128     18129     18128     18130     18131     18132
     18131     18133     18134     18135     18134     18136     18137     18138
     18137     18139     18140     18141     18140     18142     18143     18144
     18143     18145     18146     18147     18146     18148     18149     18150
     18149     18151     18152     18153     18152     18154     18155     18156
     18155     18157     18158     18159     18158     18160     18161     18162
     18161     18163     18164     18165     18164     18166     18167     18168
     18167     18169     18170     18171     18170     18172     18173     18174
     18173     18175     18176     18177     18176     18178     18179     18180
     18179     18181     18182     18183     18182     18184     18185     18186
     18185     18187     18188     18189     18188     18190     18191     18192
     18191     18193     18194     18195     18194     18196     18197     18198
     18197     18199     18200     18201     18200     18202     18203     18204
     18203     18205     18206     18207     18206     18208     18209     18210
     18209     18211     18212     18213     18212     18214     18215     18216
     18215     18217     18218     18219     18218     18220     18221     18222
     18221     18223     18224     18225     18224     18226     18227     18228
     18227     18229     18230     18231     18230     18232     18233     18234
     18233     18235     18236     18237     18236     18238     18239     18240
     18239     18241     18242     18243     18242     18244     18245     18246
     18245     18247     18248     18249     18248     18250     18251     18252
     18251     18253     18254     18255     18254     18256     18257     18258
     18257     18259     18260     18261     18260     18262     18263     18264
     18263     18265     18266     18267     18266     18268     18269     18270
     18269     18271     18272     18273     18272     18274     18275     18276
     18275     18277     18278     18279     18278     18280     18281     18282
     18281     18283     18284     18285     18284     18286     18287     18288
     18287     18289     18290     18291     18290     18292     18293     18294
     18293     18295     18296     18297     18296     18298     18299     18300
     18299     18301     18302     18303     18302     18304     18305     18306
     18305     18307     18308     18309     18308     18310     18311     18312
     18311     18313     18314     18315     18314     18316     18317     18318
     18317     18319     18320     18321     18320     18322     18323     18324
     18323     18325     18326     18327     18326     18328     18329     18330
     18329     18331     18332     18333     18332     18334     18335     18336
     18335     18337     18338     18339     18338     18340     18341     18342
     18341     18343     18344     18345     18344     18346     18347     18348
     18347     18349     18350     18351     18350     18352     18353     18354
     18353     18355     18356     18357     18356     18358     18359     18360
     18359     18361     18362     18363     18362     18364     18365     18366
     18365     18367     18368     18369     18368     18370     18371     18372
     18371     18373     18374     18375     18374     18376     18377     18378
     18377     18379     18380     18381     18380     18382     18383     18384
     18383     18385     18386     18387     18386     18388     18389     18390
     18389     18391     18392     18393     18392     18394     18395     18396
     18395     18397     18398     18399     18398     18400     18401     18402
     18401     18403     18404     18405     18404     18406     18407     18408
     18407     18409     18410     18411     18410     18412     18413     18414
     18413     18415     18416     18417     18416     18418     18419     18420
     18419     18421     18422     18423     18422     18424     18425     18426
     18425     18427     18428     18429     18428     18430     18431     18432
     18431     18433     18434     18435     18434     18436     18437     18438
     18437     18439     18440     18441     18440     18442     18443     18444
     18443     18445     18446     18447     18446     18448     18449     18450
     18449     18451     18452     18453     18452     18454     18455     18456
     18455     18457     18458     18459     18458     18460     18461     18462
     18461     18463     18464     18465     18464     18466     18467     18468
     18467     18469     18470     18471     18470     18472     18473     18474
     18473     18475     18476     18477     18476     18478     18479     18480
     18479     18481     18482     18483     18482     18484     18485     18486
     18485     18487     18488     18489     18488     18490     18491     18492
     18491     18493     18494     18495     18494     18496     18497     18498
     18497     18499     18500     18501     18500     18502     18503     18504
     18503     18505     18506     18507     18506     18508     18509     18510
     18509     18511     18512     18513     18512     18514     18515     18516
     18515     18517     18518     18519     18518     18520     18521     18522
     18521     18523     18524     18525     18524     18526     18527     18528
     18527     18529     18530     18531     18530     18532     18533     18534
     18533     18535     18536     18537     18536     18538     18539     18540
     18539     18541     18542     18543     18542     18544     18545     18546
     18545     18547     18548     18549     18548     18550     18551     18552
     18551     18553     18554     18555     18554     18556     18557     18558
     18557     18559     18560     18561     18560     18562     18563     18564
     18563     18565     18566     18567     18566     18568     18569     18570
     18569     18571     18572     18573     18572     18574     18575     18576
     18575     18577     18578     18579     18578     18580     18581     18582
     18581     18583     18584     18585     18584     18586     18587     18588
     18587     18589     18590     18591     18590     18592     18593     18594
     18593     18595     18596     18597     18596     18598     18599     18600
     18599     18601     18602     18603     18602     18604     18605     18606
     18605     18607     18608     18609     18608     18610     18611     18612
     18611     18613     18614     18615     18614     18616     18617     18618
     18617     18619     18620     18621     18620     18622     18623     18624
     18623     18625     18626     18627     18626     18628     18629     18630
     18629     18631     18632     18633     18632     18634     18635     18636
     18635     18637     18638     18639     18638     18640     18641     18642
     18641     18643     18644     18645     18644     18646     18647     18648
     18647     18649     18650     18651     18650     18652     18653     18654
     18653     18655     18656     18657     18656     18658     18659     18660
     18659     18661     18662     18663     18662     18664     18665     18666
     18665     18667     18668     18669     18668     18670     18671     18672
     18671     18673     18674     18675     18674     18676     18677     18678
     18677     18679     18680     18681     18680     18682     18683     18684
     18683     18685     18686     18687     18686     18688     18689     18690
     18689     18691     18692     18693     18692     18694     18695     18696
     18695     18697     18698     18699     18698     18700     18701     18702
     18701     18703     18704     18705     18704     18706     18707     18708
     18707     18709     18710     18711     18710     18712     18713     18714
     18713     18715     18716     18717     18716     18718     18719     18720
     18719     18721     18722     18723     18722     18724     18725     18726
     18725     18727     18728     18729     18728     18730     18731     18732
     18731     18733     18734     18735     18734     18736     18737     18738
     18737     18739     18740     18741     18740     18742     18743     18744
     18743     18745     18746     18747     18746     18748     18749     18750
     18749     18751     18752     18753     18752     18754     18755     18756
     18755     18757     18758     18759     18758     18760     18761     18762
     18761     18763     18764     18765     18764     18766     18767     18768
     18767     18769     18770     18771     18770     18772     18773     18774
     18773     18775     18776     18777     18776     18778     18779     18780
     18779     18781     18782     18783     18782     18784     18785     18786
     18785     18787     18788     18789     18788     18790     18791     18792
     18791     18793     18794     18795     18794     18796     18797     18798
     18797     18799     18800     18801     18800     18802     18803     18804
     18803     18805     18806     18807     18806     18808     18809     18810
     18809     18811     18812     18813     18812     18814     18815     18816
     18815     18817     18818     18819     18818     18820     18821     18822
     18821     18823     18824     18825     18824     18826     18827     18828
     18827     18829     18830     18831     18830     18832     18833     18834
     18833     18835     18836     18837     18836     18838     18839     18840
     18839     18841     18842     18843     18842     18844     18845     18846
     18845     18847     18848     18849     18848     18850     18851     18852
     18851     18853     18854     18855     18854     18856     18857     18858
     18857     18859     18860     18861     18860     18862     18863     18864
     18863     18865     18866     18867     18866     18868     18869     18870
     18869     18871     18872     18873     18872     18874     18875     18876
     18875     18877     18878     18879     18878     18880     18881     18882
     18881     18883     18884     18885     18884     18886     18887     18888
     18887     18889     18890     18891     18890     18892     18893     18894
     18893     18895     18896     18897     18896     18898     18899     18900
     18899     18901     18902     18903     18902     18904     18905     18906
     18905     18907     18908     18909     18908     18910     18911     18912
     18911     18913     18914     18915     18914     18916     18917     18918
     18917     18919     18920     18921     18920     18922     18923     18924
     18923     18925     18926     18927     18926     18928     18929     18930
     18929     18931     18932     18933     18932     18934     18935     18936
     18935     18937     18938     18939     18938     18940     18941     18942
     18941     18943     18944     18945     18944     18946     18947     18948
     18947     18949     18950     18951     18950     18952     18953     18954
     18953     18955     18956     18957     18956     18958     18959     18960
     18959     18961     18962     18963     18962     18964     18965     18966
     18965     18967     18968     18969     18968     18970     18971     18972
     18971     18973     18974     18975     18974     18976     18977     18978
     18977     18979     18980     18981     18980     18982     18983     18984
     18983     18985     18986     18987     18986     18988     18989     18990
     18989     18991     18992     18993     18992     18994     18995     18996
     18995     18997     18998     18999     18998     19000     19001     19002
     19001     19003     19004     19005     19004     19006     19007     19008
     19007     19009     19010     19011     19010     19012     19013     19014
     19013     19015     19016     19017     19016     19018     19019     19020
     19019     19021     19022     19023     19022     19024     19025     19026
     19025     19027     19028     19029     19028     19030     19031     19032
     19031     19033     19034     19035     19034     19036     19037     19038
     19037     19039     19040     19041     19040     19042     19043     19044
     19043     19045     19046     19047     19046     19048     19049     19050
     19049     19051     19052     19053     19052     19054     19055     19056
     19055     19057     19058     19059     19058     19060     19061     19062
     19061     19063     19064     19065     19064     19066     19067     19068
     19067     19069     19070     19071     19070     19072     19073     19074
     19073     19075     19076     19077     19076     19078     19079     19080
     19079     19081     19082     19083     19082     19084     19085     19086
     19085     19087     19088     19089     19088     19090     19091     19092
     19091     19093     19094     19095     19094     19096     19097     19098
     19097     19099     19100     19101     19100     19102     19103     19104
     19103     19105     19106     19107     19106     19108     19109     19110
     19109     19111     19112     19113     19112     19114     19115     19116
     19115     19117     19118     19119     19118     19120     19121     19122
     19121     19123     19124     19125     19124     19126     19127     19128
     19127     19129     19130     19131     19130     19132     19133     19134
     19133     19135     19136     19137     19136     19138     19139     19140
     19139     19141     19142     19143     19142     19144     19145     19146
     19145     19147     19148     19149     19148     19150     19151     19152
     19151     19153     19154     19155     19154     19156     19157     19158
     19157     19159     19160     19161     19160     19162     19163     19164
     19163     19165     19166     19167     19166     19168     19169     19170
     19169     19171     19172     19173     19172     19174     19175     19176
     19175     19177     19178     19179     19178     19180     19181     19182
     19181     19183     19184     19185     19184     19186     19187     19188
     19187     19189     19190     19191     19190     19192     19193     19194
     19193     19195     19196     19197     19196     19198     19199     19200
     19199     19201     19202     19203     19202     19204     19205     19206
     19205     19207     19208     19209     19208     19210     19211     19212
     19211     19213     19214     19215     19214     19216     19217     19218
     19217     19219     19220     19221     19220     19222     19223     19224
     19223     19225     19226     19227     19226     19228     19229     19230
     19229     19231     19232     19233     19232     19234     19235     19236
     19235     19237     19238     19239     19238     19240     19241     19242
     19241     19243     19244     19245     19244     19246     19247     19248
     19247     19249     19250     19251     19250     19252     19253     19254
     19253     19255     19256     19257     19256     19258     19259     19260
     19259     19261     19262     19263     19262     19264     19265     19266
     19265     19267     19268     19269     19268     19270     19271     19272
     19271     19273     19274     19275     19274     19276     19277     19278
     19277     19279     19280     19281     19280     19282     19283     19284
     19283     19285     19286     19287     19286     19288     19289     19290
     19289     19291     19292     19293     19292     19294     19295     19296
     19295     19297     19298     19299     19298     19300     19301     19302
     19301     19303     19304     19305     19304     19306     19307     19308
     19307     19309     19310     19311     19310     19312     19313     19314
     19313     19315     19316     19317     19316     19318     19319     19320
     19319     19321     19322     19323     19322     19324     19325     19326
     19325     19327     19328     19329     19328     19330     19331     19332
     19331     19333     19334     19335     19334     19336     19337     19338
     19337     19339     19340     19341     19340     19342     19343     19344
     19343     19345     19346     19347     19346     19348     19349     19350
     19349     19351     19352     19353     19352     19354     19355     19356
     19355     19357     19358     19359     19358     19360     19361     19362
     19361     19363     19364     19365     19364     19366     19367     19368
     19367     19369     19370     19371     19370     19372     19373     19374
     19373     19375     19376     19377     19376     19378     19379     19380
     19379     19381     19382     19383     19382     19384     19385     19386
     19385     19387     19388     19389     19388     19390     19391     19392
     19391     19393     19394     19395     19394     19396     19397     19398
     19397     19399     19400     19401     19400     19402     19403     19404
     19403     19405     19406     19407     19406     19408     19409     19410
     19409     19411     19412     19413     19412     19414     19415     19416
     19415     19417     19418     19419     19418     19420     19421     19422
     19421     19423     19424     19425     19424     19426     19427     19428
     19427     19429     19430     19431     19430     19432     19433     19434
     19433     19435     19436     19437     19436     19438     19439     19440
     19439     19441     19442     19443     19442     19444     19445     19446
     19445     19447     19448     19449     19448     19450     19451     19452
     19451     19453     19454     19455     19454     19456     19457     19458
     19457     19459     19460     19461     19460     19462     19463     19464
     19463     19465     19466     19467     19466     19468     19469     19470
     19469     19471     19472     19473     19472     19474     19475     19476
     19475     19477     19478     19479     19478     19480     19481     19482
     19481     19483     19484     19485     19484     19486     19487     19488
     19487     19489     19490     19491     19490     19492     19493     19494
     19493     19495     19496     19497     19496     19498     19499     19500
     19499     19501     19502     19503     19502     19504     19505     19506
     19505     19507     19508     19509     19508     19510     19511     19512
     19511     19513     19514     19515     19514     19516     19517     19518
     19517     19519     19520     19521     19520     19522     19523     19524
     19523     19525     19526     19527     19526     19528     19529     19530
     19529     19531     19532     19533     19532     19534     19535     19536
     19535     19537     19538     19539     19538     19540     19541     19542
     19541     19543     19544     19545     19544     19546     19547     19548
     19547     19549     19550     19551     19550     19552     19553     19554
     19553     19555     19556     19557     19556     19558     19559     19560
     19559     19561     19562     19563     19562     19564     19565     19566
     19565     19567     19568     19569     19568     19570     19571     19572
     19571     19573     19574     19575     19574     19576     19577     19578
     19577     19579     19580     19581     19580     19582     19583     19584
     19583     19585     19586     19587     19586     19588     19589     19590
     19589     19591     19592     19593     19592     19594     19595     19596
     19595     19597     19598     19599     19598     19600     19601     19602
     19601     19603     19604     19605     19604     19606     19607     19608
     19607     19609     19610     19611     19610     19612     19613     19614
     19613     19615     19616     19617     19616     19618     19619     19620
     19619     19621     19622     19623     19622     19624     19625     19626
     19625     19627     19628     19629     19628     19630     19631     19632
     19631     19633     19634     19635     19634     19636     19637     19638
     19637     19639     19640     19641     19640     19642     19643     19644
     19643     19645     19646     19647     19646     19648     19649     19650
     19649     19651     19652     19653     19652     19654     19655     19656
     19655     19657     19658     19659     19658     19660     19661     19662
     19661     19663     19664     19665     19664     19666     19667     19668
     19667     19669     19670     19671     19670     19672     19673     19674
     19673     19675     19676     19677     19676     19678     19679     19680
     19679     19681     19682     19683     19682     19684     19685     19686
     19685     19687     19688     19689     19688     19690     19691     19692
     19691     19693     19694     19695     19694     19696     19697     19698
     19697     19699     19700     19701     19700     19702     19703     19704
     19703     19705     19706     19707     19706     19708     19709     19710
     19709     19711     19712     19713     19712     19714     19715     19716
     19715     19717     19718     19719     19718     19720     19721     19722
     19721     19723     19724     19725     19724     19726     19727     19728
     19727     19729     19730     19731     19730     19732     19733     19734
     19733     19735     19736     19737     19736     19738     19739     19740
     19739     19741     19742     19743     19742     19744     19745     19746
     19745     19747     19748     19749     19748     19750     19751     19752
     19751     19753     19754     19755     19754     19756     19757     19758
     19757     19759     19760     19761     19760     19762     19763     19764
     19763     19765     19766     19767     19766     19768     19769     19770
     19769     19771     19772     19773     19772     19774     19775     19776
     19775     19777     19778     19779     19778     19780     19781     19782
     19781     19783     19784     19785     19784     19786     19787     19788
     19787     19789     19790     19791     19790     19792     19793     19794
     19793     19795     19796     19797     19796     19798     19799     19800
     19799     19801     19802     19803     19802     19804     19805     19806
     19805     19807     19808     19809     19808     19810     19811     19812
     19811     19813     19814     19815     19814     19816     19817     19818
     19817     19819     19820     19821     19820     19822     19823     19824
     19823     19825     19826     19827     19826     19828     19829     19830
     19829     19831     19832     19833     19832     19834     19835     19836
     19835     19837     19838     19839     19838     19840     19841     19842
     19841     19843     19844     19845     19844     19846     19847     19848
     19847     19849     19850     19851     19850     19852     19853     19854
     19853     19855     19856     19857     19856     19858     19859     19860
     19859     19861     19862     19863     19862     19864     19865     19866
     19865     19867     19868     19869     19868     19870     19871     19872
     19871     19873     19874     19875     19874     19876     19877     19878
     19877     19879     19880     19881     19880     19882     19883     19884
     19883     19885     19886     19887     19886     19888     19889     19890
     19889     19891     19892     19893     19892     19894     19895     19896
     19895     19897     19898     19899     19898     19900     19901     19902
     19901     19903     19904     19905     19904     19906     19907     19908
     19907     19909     19910     19911     19910     19912     19913     19914
     19913     19915     19916     19917     19916     19918     19919     19920
     19919     19921     19922     19923     19922     19924     19925     19926
     19925     19927     19928     19929     19928     19930     19931     19932
     19931     19933     19934     19935     19934     19936     19937     19938
     19937     19939     19940     19941     19940     19942     19943     19944
     19943     19945     19946     19947     19946     19948     19949     19950
     19949     19951     19952     19953     19952     19954     19955     19956
     19955     19957     19958     19959     19958     19960     19961     19962
     19961     19963     19964     19965     19964     19966     19967     19968
     19967     19969     19970     19971     19970     19972     19973     19974
     19973     19975     19976     19977     19976     19978     19979     19980
     19979     19981     19982     19983     19982     19984     19985     19986
     19985     19987     19988     19989     19988     19990     19991     19992
     19991     19993     19994     19995     19994     19996     19997     19998
     19997     19999     20000     20001     20000     20002     20003     20004
     20003     20005     20006     20007     20006     20008     20009     20010
     20009     20011     20012     20013     20012     20014     20015     20016
     20015     20017     20018     20019     20018     20020     20021     20022
     20021     20023     20024     20025     20024     20026     20027     20028
     20027     20029     20030     20031     20030     20032     20033     20034
     20033     20035     20036     20037     20036     20038     20039     20040
     20039     20041     20042     20043     20042     20044     20045     20046
     20045     20047     20048     20049     20048     20050     20051     20052
     20051     20053     20054     20055     20054     20056     20057     20058
     20057     20059     20060     20061     20060     20062     20063     20064
     20063     20065     20066     20067     20066     20068     20069     20070
     20069     20071     20072     20073     20072     20074     20075     20076
     20075     20077     20078     20079     20078     20080     20081     20082
     20081     20083     20084     20085     20084     20086     20087     20088
     20087     20089     20090     20091     20090     20092     20093     20094
     20093     20095     20096     20097     20096     20098     20099     20100
     20099     20101     20102     20103     20102     20104     20105     20106
     20105     20107     20108     20109     20108     20110     20111     20112
     20111     20113     20114     20115     20114     20116     20117     20118
     20117     20119     20120     20121     20120     20122     20123     20124
     20123     20125     20126     20127     20126     20128     20129     20130
     20129     20131     20132     20133     20132     20134     20135     20136
     20135     20137     20138     20139     20138     20140     20141     20142
     20141     20143     20144     20145     20144     20146     20147     20148
     20147     20149     20150     20151     20150     20152     20153     20154
     20153     20155     20156     20157     20156     20158     20159     20160
     20159     20161     20162     20163     20162     20164     20165     20166
     20165     20167     20168     20169     20168     20170     20171     20172
     20171     20173     20174     20175     20174     20176     20177     20178
     20177     20179     20180     20181     20180     20182     20183     20184
     20183     20185     20186     20187     20186     20188     20189     20190
     20189     20191     20192     20193     20192     20194     20195     20196
     20195     20197     20198     20199     20198     20200     20201     20202
     20201     20203     20204     20205     20204     20206     20207     20208
     20207     20209     20210     20211     20210     20212     20213     20214
     20213     20215     20216     20217     20216     20218     20219     20220
     20219     20221     20222     20223     20222     20224     20225     20226
     20225     20227     20228     20229     20228     20230     20231     20232
     20231     20233     20234     20235     20234     20236     20237     20238
     20237     20239     20240     20241     20240     20242     20243     20244
     20243     20245     20246     20247     20246     20248     20249     20250
     20249     20251     20252     20253     20252     20254     20255     20256
     20255     20257     20258     20259     20258     20260     20261     20262
     20261     20263     20264     20265     20264     20266     20267     20268
     20267     20269     20270     20271     20270     20272     20273     20274
     20273     20275     20276     20277     20276     20278     20279     20280
     20279     20281     20282     20283     20282     20284     20285     20286
     20285     20287     20288     20289     20288     20290     20291     20292
     20291     20293     20294     20295     20294     20296     20297     20298
     20297     20299     20300     20301     20300     20302     20303     20304
     20303     20305     20306     20307     20306     20308     20309     20310
     20309     20311     20312     20313     20312     20314     20315     20316
     20315     20317     20318     20319     20318     20320     20321     20322
     20321     20323     20324     20325     20324     20326     20327     20328
     20327     20329     20330     20331     20330     20332     20333     20334
     20333     20335     20336     20337     20336     20338     20339     20340
     20339     20341     20342     20343     20342     20344     20345     20346
     20345     20347     20348     20349     20348     20350     20351     20352
     20351     20353     20354     20355     20354     20356     20357     20358
     20357     20359     20360     20361     20360     20362     20363     20364
     20363     20365     20366     20367     20366     20368     20369     20370
     20369     20371     20372     20373     20372     20374     20375     20376
     20375     20377     20378     20379     20378     20380     20381     20382
     20381     20383     20384     20385     20384     20386     20387     20388
     20387     20389     20390     20391     20390     20392     20393     20394
     20393     20395     20396     20397     20396     20398     20399     20400
     20399     20401     20402     20403     20402     20404     20405     20406
     20405     20407     20408     20409     20408     20410     20411     20412
     20411     20413     20414     20415     20414     20416     20417     20418
     20417     20419     20420     20421     20420     20422     20423     20424
     20423     20425     20426     20427     20426     20428     20429     20430
     20429     20431     20432     20433     20432     20434     20435     20436
     20435     20437     20438     20439     20438     20440     20441     20442
     20441     20443     20444     20445     20444     20446     20447     20448
     20447     20449     20450     20451     20450     20452     20453     20454
     20453     20455     20456     20457     20456     20458     20459     20460
     20459     20461     20462     20463     20462     20464     20465     20466
     20465     20467     20468     20469     20468     20470     20471     20472
     20471     20473     20474     20475     20474     20476     20477     20478
     20477     20479     20480     20481     20480     20482     20483     20484
     20483     20485     20486     20487     20486     20488     20489     20490
     20489     20491     20492     20493     20492     20494     20495     20496
     20495     20497     20498     20499     20498     20500     20501     20502
     20501     20503     20504     20505     20504     20506     20507     20508
     20507     20509     20510     20511     20510     20512     20513     20514
     20513     20515     20516     20517     20516     20518     20519     20520
     20519     20521     20522     20523     20522     20524     20525     20526
     20525     20527     20528     20529     20528     20530     20531     20532
     20531     20533     20534     20535     20534     20536     20537     20538
     20537     20539     20540     20541     20540     20542     20543     20544
     20543     20545     20546     20547     20546     20548     20549     20550
     20549     20551     20552     20553     20552     20554     20555     20556
     20555     20557     20558     20559     20558     20560     20561     20562
     20561     20563     20564     20565     20564     20566     20567     20568
     20567     20569     20570     20571     20570     20572     20573     20574
     20573     20575     20576     20577     20576     20578     20579     20580
     20579     20581     20582     20583     20582     20584     20585     20586
     20585     20587     20588     20589     20588     20590     20591     20592
     20591     20593     20594     20595     20594     20596     20597     20598
     20597     20599     20600     20601     20600     20602     20603     20604
     20603     20605     20606     20607     20606     20608     20609     20610
     20609     20611     20612     20613     20612     20614     20615     20616
     20615     20617     20618     20619     20618     20620     20621     20622
     20621     20623     20624     20625     20624     20626     20627     20628
     20627     20629     20630     20631     20630     20632     20633     20634
     20633     20635     20636     20637     20636     20638     20639     20640
     20639     20641     20642     20643     20642     20644     20645     20646
     20645     20647     20648     20649     20648     20650     20651     20652
     20651     20653     20654     20655     20654     20656     20657     20658
     20657     20659     20660     20661     20660     20662     20663     20664
     20663     20665     20666     20667     20666     20668     20669     20670
     20669     20671     20672     20673     20672     20674     20675     20676
     20675     20677     20678     20679     20678     20680     20681     20682
     20681     20683     20684     20685     20684     20686     20687     20688
     20687     20689     20690     20691     20690     20692     20693     20694
     20693     20695     20696     20697     20696     20698     20699     20700
     20699     20701     20702     20703     20702     20704     20705     20706
     20705     20707     20708     20709     20708     20710     20711     20712
     20711     20713     20714     20715     20714     20716     20717     20718
     20717     20719     20720     20721     20720     20722     20723     20724
     20723     20725     20726     20727     20726     20728     20729     20730
     20729     20731     20732     20733     20732     20734     20735     20736
     20735     20737     20738     20739     20738     20740     20741     20742
     20741     20743     20744     20745     20744     20746     20747     20748
     20747     20749     20750     20751     20750     20752     20753     20754
     20753     20755     20756     20757     20756     20758     20759     20760
     20759     20761     20762     20763     20762     20764     20765     20766
     20765     20767     20768     20769     20768     20770     20771     20772
     20771     20773     20774     20775     20774     20776     20777     20778
     20777     20779     20780     20781     20780     20782     20783     20784
     20783     20785     20786     20787     20786     20788     20789     20790
     20789     20791     20792     20793     20792     20794     20795     20796
     20795     20797     20798     20799     20798     20800     20801     20802
     20801     20803     20804     20805     20804     20806     20807     20808
     20807     20809     20810     20811     20810     20812     20813     20814
     20813     20815     20816     20817     20816     20818     20819     20820
     20819     20821     20822     20823     20822     20824     20825     20826
     20825     20827     20828     20829     20828     20830     20831     20832
     20831     20833     20834     20835     20834     20836     20837     20838
     20837     20839     20840     20841     20840     20842     20843     20844
     20843     20845     20846     20847     20846     20848     20849     20850
     20849     20851     20852     20853     20852     20854     20855     20856
     20855     20857     20858     20859     20858     20860     20861     20862
     20861     20863     20864     20865     20864     20866     20867     20868
     20867     20869     20870     20871     20870     20872     20873     20874
     20873     20875     20876     20877     20876     20878     20879     20880
     20879     20881     20882     20883     20882     20884     20885     20886
     20885     20887     20888     20889     20888     20890     20891     20892
     20891     20893     20894     20895     20894     20896     20897     20898
     20897     20899     20900     20901     20900     20902     20903     20904
     20903     20905     20906     20907     20906     20908     20909     20910
     20909     20911     20912     20913     20912     20914     20915     20916
     20915     20917     20918     20919     20918     20920     20921     20922
     20921     20923     20924     20925     20924     20926     20927     20928
     20927     20929     20930     20931     20930     20932     20933     20934
     20933     20935     20936     20937     20936     20938     20939     20940
     20939     20941     20942     20943     20942     20944     20945     20946
     20945     20947     20948     20949     20948     20950     20951     20952
     20951     20953     20954     20955     20954     20956     20957     20958
     20957     20959     20960     20961     20960     20962     20963     20964
     20963     20965     20966     20967     20966     20968     20969     20970
     20969     20971     20972     20973     20972     20974     20975     20976
     20975     20977     20978     20979     20978     20980     20981     20982
     20981     20983     20984     20985     20984     20986     20987     20988
     20987     20989     20990     20991     20990     20992     20993     20994
     20993     20995     20996     20997     20996     20998     20999     21000
     20999     21001     21002     21003     21002     21004     21005     21006
     21005     21007     21008     21009     21008     21010     21011     21012
     21011     21013     21014     21015     21014     21016     21017     21018
     21017     21019     21020     21021     21020     21022     21023     21024
     21023     21025     21026     21027     21026     21028     21029     21030
     21029     21031     21032     21033     21032     21034     21035     21036
     21035     21037     21038     21039     21038     21040     21041     21042
     21041     21043     21044     21045     21044     21046     21047     21048
     21047     21049     21050     21051     21050     21052     21053     21054
     21053     21055     21056     21057     21056     21058     21059     21060
     21059     21061     21062     21063     21062     21064     21065     21066
     21065     21067     21068     21069     21068     21070     21071     21072
     21071     21073     21074     21075     21074     21076     21077     21078
     21077     21079     21080     21081     21080     21082     21083     21084
     21083     21085     21086     21087     21086     21088     21089     21090
     21089     21091     21092     21093     21092     21094     21095     21096
     21095     21097     21098     21099     21098     21100     21101     21102
     21101     21103     21104     21105     21104     21106     21107     21108
     21107     21109     21110     21111     21110     21112     21113     21114
     21113     21115     21116     21117     21116     21118     21119     21120
     21119     21121     21122     21123     21122     21124     21125     21126
     21125     21127     21128     21129     21128     21130     21131     21132
     21131     21133     21134     21135     21134     21136     21137     21138
     21137     21139     21140     21141     21140     21142     21143     21144
     21143     21145     21146     21147     21146     21148     21149     21150
     21149     21151     21152     21153     21152     21154     21155     21156
     21155     21157     21158     21159     21158     21160     21161     21162
     21161     21163     21164     21165     21164     21166     21167     21168
     21167     21169     21170     21171     21170     21172     21173     21174
     21173     21175     21176     21177     21176     21178     21179     21180
     21179     21181     21182     21183     21182     21184     21185     21186
     21185     21187     21188     21189     21188     21190     21191     21192
     21191     21193     21194     21195     21194     21196     21197     21198
     21197     21199     21200     21201     21200     21202     21203     21204
     21203     21205     21206     21207     21206     21208     21209     21210
     21209     21211     21212     21213     21212     21214     21215     21216
     21215     21217     21218     21219     21218     21220     21221     21222
     21221     21223     21224     21225     21224     21226     21227     21228
     21227     21229     21230     21231     21230     21232     21233     21234
     21233     21235     21236     21237     21236     21238     21239     21240
     21239     21241     21242     21243     21242     21244     21245     21246
     21245     21247     21248     21249     21248     21250     21251     21252
     21251     21253     21254     21255     21254     21256     21257     21258
     21257     21259     21260     21261     21260     21262     21263     21264
     21263     21265     21266     21267     21266     21268     21269     21270
     21269     21271     21272     21273     21272     21274     21275     21276
     21275     21277     21278     21279     21278     21280     21281     21282
     21281     21283     21284     21285     21284     21286     21287     21288
     21287     21289     21290     21291     21290     21292     21293     21294
     21293     21295     21296     21297     21296     21298     21299     21300
     21299     21301     21302     21303     21302     21304     21305     21306
     21305     21307     21308     21309     21308     21310     21311     21312
     21311     21313     21314     21315     21314     21316     21317     21318
     21317     21319     21320     21321     21320     21322     21323     21324
     21323     21325     21326     21327     21326     21328     21329     21330
     21329     21331     21332     21333     21332     21334     21335     21336
     21335     21337     21338     21339     21338     21340     21341     21342
     21341     21343     21344     21345     21344     21346     21347     21348
     21347     21349     21350     21351     21350     21352     21353     21354
     21353     21355     21356     21357     21356     21358     21359     21360
     21359     21361     21362     21363     21362     21364     21365     21366
     21365     21367     21368     21369     21368     21370     21371     21372
     21371     21373     21374     21375     21374     21376     21377     21378
     21377     21379     21380     21381     21380     21382     21383     21384
     21383     21385     21386     21387     21386     21388     21389     21390
     21389     21391     21392     21393     21392     21394     21395     21396
     21395     21397     21398     21399     21398     21400     21401     21402
     21401     21403     21404     21405     21404     21406     21407     21408
     21407     21409     21410     21411     21410     21412     21413     21414
     21413     21415     21416     21417     21416     21418     21419     21420
     21419     21421     21422     21423     21422     21424     21425     21426
     21425     21427     21428     21429     21428     21430     21431     21432
     21431     21433     21434     21435     21434     21436     21437     21438
     21437     21439     21440     21441     21440     21442     21443     21444
     21443     21445     21446     21447     21446     21448     21449     21450
     21449     21451     21452     21453     21452     21454     21455     21456
     21455     21457     21458     21459     21458     21460     21461     21462
     21461     21463     21464     21465     21464     21466     21467     21468
     21467     21469     21470     21471     21470     21472     21473     21474
     21473     21475     21476     21477     21476     21478     21479     21480
     21479     21481     21482     21483     21482     21484     21485     21486
     21485     21487     21488     21489     21488     21490     21491     21492
     21491     21493     21494     21495     21494     21496     21497     21498
     21497     21499     21500     21501     21500     21502     21503     21504
     21503     21505     21506     21507     21506     21508     21509     21510
     21509     21511     21512     21513     21512     21514     21515     21516
     21515     21517     21518     21519     21518     21520     21521     21522
     21521     21523     21524     21525     21524     21526     21527     21528
     21527     21529     21530     21531     21530     21532     21533     21534
     21533     21535     21536     21537     21536     21538     21539     21540
     21539     21541     21542     21543     21542     21544     21545     21546
     21545     21547     21548     21549     21548     21550     21551     21552
     21551     21553     21554     21555     21554     21556     21557     21558
     21557     21559     21560     21561     21560     21562     21563     21564
     21563     21565     21566     21567     21566     21568     21569     21570
     21569     21571     21572     21573     21572     21574     21575     21576
     21575     21577     21578     21579     21578     21580     21581     21582
     21581     21583     21584     21585     21584     21586     21587     21588
     21587     21589     21590     21591     21590     21592     21593     21594
     21593     21595     21596     21597     21596     21598     21599     21600
     21599     21601     21602     21603     21602     21604     21605     21606
     21605     21607     21608     21609     21608     21610     21611     21612
     21611     21613     21614     21615     21614     21616     21617     21618
     21617     21619     21620     21621     21620     21622     21623     21624
     21623     21625     21626     21627     21626     21628     21629     21630
     21629     21631     21632     21633     21632     21634     21635     21636
     21635     21637     21638     21639     21638     21640     21641     21642
     21641     21643     21644     21645     21644     21646     21647     21648
     21647     21649     21650     21651     21650     21652     21653     21654
     21653     21655     21656     21657     21656     21658     21659     21660
     21659     21661     21662     21663     21662     21664     21665     21666
     21665     21667     21668     21669     21668     21670     21671     21672
     21671     21673     21674     21675     21674     21676     21677     21678
     21677     21679     21680     21681     21680     21682     21683     21684
     21683     21685     21686     21687     21686     21688     21689     21690
     21689     21691     21692     21693     21692     21694     21695     21696
     21695     21697     21698     21699     21698     21700     21701     21702
     21701     21703     21704     21705     21704     21706     21707     21708
     21707     21709     21710     21711     21710     21712     21713     21714
     21713     21715     21716     21717     21716     21718     21719     21720
     21719     21721     21722     21723     21722     21724     21725     21726
     21725     21727     21728     21729     21728     21730     21731     21732
     21731     21733     21734     21735     21734     21736     21737     21738
     21737     21739     21740     21741     21740     21742     21743     21744
     21743     21745     21746     21747     21746     21748     21749     21750
     21749     21751     21752     21753     21752     21754     21755     21756
     21755     21757     21758     21759     21758     21760     21761     21762
     21761     21763     21764     21765     21764     21766     21767     21768
     21767     21769     21770     21771     21770     21772     21773     21774
     21773     21775     21776     21777     21776     21778     21779     21780
     21779     21781     21782     21783     21782     21784     21785     21786
     21785     21787     21788     21789     21788     21790     21791     21792
     21791     21793     21794     21795     21794     21796     21797     21798
     21797     21799     21800     21801     21800     21802     21803     21804
     21803     21805     21806     21807     21806     21808     21809     21810
     21809     21811     21812     21813     21812     21814     21815     21816
     21815     21817     21818     21819     21818     21820     21821     21822
     21821     21823     21824     21825     21824     21826     21827     21828
     21827     21829     21830     21831     21830     21832     21833     21834
     21833     21835     21836     21837     21836     21838     21839     21840
     21839     21841     21842     21843     21842     21844     21845     21846
     21845     21847     21848     21849     21848     21850     21851     21852
     21851     21853     21854     21855     21854     21856     21857     21858
     21857     21859     21860     21861     21860     21862     21863     21864
     21863     21865     21866     21867     21866     21868     21869     21870
     21869     21871     21872     21873     21872     21874     21875     21876
     21875     21877     21878     21879     21878     21880     21881     21882
     21881     21883     21884     21885     21884     21886     21887     21888
     21887     21889     21890     21891     21890     21892     21893     21894
     21893     21895     21896     21897     21896     21898     21899     21900
     21899     21901     21902     21903     21902     21904     21905     21906
     21905     21907     21908     21909     21908     21910     21911     21912
     21911     21913     21914     21915     21914     21916     21917     21918
     21917     21919     21920     21921     21920     21922     21923     21924
     21923     21925     21926     21927     21926     21928     21929     21930
     21929     21931     21932     21933     21932     21934     21935     21936
     21935     21937     21938     21939     21938     21940     21941     21942
     21941     21943     21944     21945     21944     21946     21947     21948
     21947     21949     21950     21951     21950     21952     21953     21954
     21953     21955     21956     21957     21956     21958     21959     21960
     21959     21961     21962     21963     21962     21964     21965     21966
     21965     21967     21968     21969     21968     21970     21971     21972
     21971     21973     21974     21975     21974     21976     21977     21978
     21977     21979     21980     21981     21980     21982     21983     21984
     21983     21985     21986     21987     21986     21988     21989     21990
     21989     21991     21992     21993     21992     21994     21995     21996
     21995     21997     21998     21999     21998     22000     22001     22002
     22001     22003     22004     22005     22004     22006     22007     22008
     22007     22009     22010     22011     22010     22012     22013     22014
     22013     22015     22016     22017     22016     22018     22019     22020
     22019     22021     22022     22023     22022     22024     22025     22026
     22025     22027     22028     22029     22028     22030     22031     22032
     22031     22033     22034     22035     22034     22036     22037     22038
     22037     22039     22040     22041     22040     22042     22043     22044
     22043     22045     22046     22047     22046     22048     22049     22050
     22049     22051     22052     22053     22052     22054     22055     22056
     22055     22057     22058     22059     22058     22060     22061     22062
     22061     22063     22064     22065     22064     22066     22067     22068
     22067     22069     22070     22071     22070     22072     22073     22074
     22073     22075     22076     22077     22076     22078     22079     22080
     22079     22081     22082     22083     22082     22084     22085     22086
     22085     22087     22088     22089     22088     22090     22091     22092
     22091     22093     22094     22095     22094     22096     22097     22098
     22097     22099     22100     22101     22100     22102     22103     22104
     22103     22105     22106     22107     22106     22108     22109     22110
     22109     22111     22112     22113     22112     22114     22115     22116
     22115     22117     22118     22119     22118     22120     22121     22122
     22121     22123     22124     22125     22124     22126     22127     22128
     22127     22129     22130     22131     22130     22132     22133     22134
     22133     22135     22136     22137     22136     22138     22139     22140
     22139     22141     22142     22143     22142     22144     22145     22146
     22145     22147     22148     22149     22148     22150     22151     22152
     22151     22153     22154     22155     22154     22156     22157     22158
     22157     22159     22160     22161     22160     22162     22163     22164
     22163     22165     22166     22167     22166     22168     22169     22170
     22169     22171     22172     22173     22172     22174     22175     22176
     22175     22177     22178     22179     22178     22180     22181     22182
     22181     22183     22184     22185     22184     22186     22187     22188
     22187     22189     22190     22191     22190     22192     22193     22194
     22193     22195     22196     22197     22196     22198     22199     22200
     22199     22201     22202     22203     22202     22204     22205     22206
     22205     22207     22208     22209     22208     22210     22211     22212
     22211     22213     22214     22215     22214     22216     22217     22218
     22217     22219     22220     22221     22220     22222     22223     22224
     22223     22225     22226     22227     22226     22228     22229     22230
     22229     22231     22232     22233     22232     22234     22235     22236
     22235     22237     22238     22239     22238     22240     22241     22242
     22241     22243     22244     22245     22244     22246     22247     22248
     22247     22249     22250     22251     22250     22252     22253     22254
     22253     22255     22256     22257     22256     22258     22259     22260
     22259     22261     22262     22263     22262     22264     22265     22266
     22265     22267     22268     22269     22268     22270     22271     22272
     22271     22273     22274     22275     22274     22276     22277     22278
     22277     22279     22280     22281     22280     22282     22283     22284
     22283     22285     22286     22287     22286     22288     22289     22290
     22289     22291     22292     22293     22292     22294     22295     22296
     22295     22297     22298     22299     22298     22300     22301     22302
     22301     22303     22304     22305     22304     22306     22307     22308
     22307     22309     22310     22311     22310     22312     22313     22314
     22313     22315     22316     22317     22316     22318     22319     22320
     22319     22321     22322     22323     22322     22324     22325     22326
     22325     22327     22328     22329     22328     22330     22331     22332
     22331     22333     22334     22335     22334     22336     22337     22338
     22337     22339     22340     22341     22340     22342     22343     22344
     22343     22345     22346     22347     22346     22348     22349     22350
     22349     22351     22352     22353     22352     22354     22355     22356
     22355     22357     22358     22359     22358     22360     22361     22362
     22361     22363     22364     22365     22364     22366     22367     22368
     22367     22369     22370     22371     22370     22372     22373     22374
     22373     22375     22376     22377     22376     22378     22379     22380
     22379     22381     22382     22383     22382     22384     22385     22386
     22385     22387     22388     22389     22388     22390     22391     22392
     22391     22393     22394     22395     22394     22396     22397     22398
     22397     22399     22400     22401     22400     22402     22403     22404
     22403     22405     22406     22407     22406     22408     22409     22410
     22409     22411     22412     22413     22412     22414     22415     22416
     22415     22417     22418     22419     22418     22420     22421     22422
     22421     22423     22424     22425     22424     22426     22427     22428
     22427     22429     22430     22431     22430     22432     22433     22434
     22433     22435     22436     22437     22436     22438     22439     22440
     22439     22441     22442     22443     22442     22444     22445     22446
     22445     22447     22448     22449     22448     22450     22451     22452
     22451     22453     22454     22455     22454     22456     22457     22458
     22457     22459     22460     22461     22460     22462     22463     22464
     22463     22465     22466     22467     22466     22468     22469     22470
     22469     22471     22472     22473     22472     22474     22475     22476
     22475     22477     22478     22479     22478     22480     22481     22482
     22481     22483     22484     22485     22484     22486     22487     22488
     22487     22489     22490     22491     22490     22492     22493     22494
     22493     22495     22496     22497     22496     22498     22499     22500
     22499     22501     22502     22503     22502     22504     22505     22506
     22505     22507     22508     22509     22508     22510     22511     22512
     22511     22513     22514     22515     22514     22516     22517     22518
     22517     22519     22520     22521     22520     22522     22523     22524
     22523     22525     22526     22527     22526     22528     22529     22530
     22529     22531     22532     22533     22532     22534     22535     22536
     22535     22537     22538     22539     22538     22540     22541     22542
     22541     22543     22544     22545     22544     22546     22547     22548
     22547     22549     22550     22551     22550     22552     22553     22554
     22553     22555     22556     22557     22556     22558     22559     22560
     22559     22561     22562     22563     22562     22564     22565     22566
     22565     22567     22568     22569     22568     22570     22571     22572
     22571     22573     22574     22575     22574     22576     22577     22578
     22577     22579     22580     22581     22580     22582     22583     22584
     22583     22585     22586     22587     22586     22588     22589     22590
     22589     22591     22592     22593     22592     22594     22595     22596
     22595     22597     22598     22599     22598     22600     22601     22602
     22601     22603     22604     22605     22604     22606     22607     22608
     22607     22609     22610     22611     22610     22612     22613     22614
     22613     22615     22616     22617     22616     22618     22619     22620
     22619     22621     22622     22623     22622     22624     22625     22626
     22625     22627     22628     22629     22628     22630     22631     22632
     22631     22633     22634     22635     22634     22636     22637     22638
     22637     22639     22640     22641     22640     22642     22643     22644
     22643     22645     22646     22647     22646     22648     22649     22650
     22649     22651     22652     22653     22652     22654     22655     22656
     22655     22657     22658     22659     22658     22660     22661     22662
     22661     22663     22664     22665     22664     22666     22667     22668
     22667     22669     22670     22671     22670     22672     22673     22674
     22673     22675     22676     22677     22676     22678     22679     22680
     22679     22681     22682     22683     22682     22684     22685     22686
     22685     22687     22688     22689     22688     22690     22691     22692
     22691     22693     22694     22695     22694     22696     22697     22698
     22697     22699     22700     22701     22700     22702     22703     22704
     22703     22705     22706     22707     22706     22708     22709     22710
     22709     22711     22712     22713     22712     22714     22715     22716
     22715     22717     22718     22719     22718     22720     22721     22722
     22721     22723     22724     22725     22724     22726     22727     22728
     22727     22729     22730     22731     22730     22732     22733     22734
     22733     22735     22736     22737     22736     22738     22739     22740
     22739     22741     22742     22743     22742     22744     22745     22746
     22745     22747     22748     22749     22748     22750     22751     22752
     22751     22753     22754     22755     22754     22756     22757     22758
     22757     22759     22760     22761     22760     22762     22763     22764
     22763     22765     22766     22767     22766     22768     22769     22770
     22769     22771     22772     22773     22772     22774     22775     22776
     22775     22777     22778     22779     22778     22780     22781     22782
     22781     22783     22784     22785     22784     22786     22787     22788
     22787     22789     22790     22791     22790     22792     22793     22794
     22793     22795     22796     22797     22796     22798     22799     22800
     22799     22801     22802     22803     22802     22804     22805     22806
     22805     22807     22808     22809     22808     22810     22811     22812
     22811     22813     22814     22815     22814     22816     22817     22818
     22817     22819     22820     22821     22820     22822     22823     22824
     22823     22825     22826     22827     22826     22828     22829     22830
     22829     22831     22832     22833     22832     22834     22835     22836
     22835     22837     22838     22839     22838     22840     22841     22842
     22841     22843     22844     22845     22844     22846     22847     22848
     22847     22849     22850     22851     22850     22852     22853     22854
     22853     22855     22856     22857     22856     22858     22859     22860
     22859     22861     22862     22863     22862     22864     22865     22866
     22865     22867     22868     22869     22868     22870     22871     22872
     22871     22873     22874     22875     22874     22876     22877     22878
     22877     22879     22880     22881     22880     22882     22883     22884
     22883     22885     22886     22887     22886     22888     22889     22890
     22889     22891     22892     22893     22892     22894     22895     22896
     22895     22897     22898     22899     22898     22900     22901     22902
     22901     22903     22904     22905     22904     22906     22907     22908
     22907     22909     22910     22911     22910     22912     22913     22914
     22913     22915     22916     22917     22916     22918     22919     22920
     22919     22921     22922     22923     22922     22924     22925     22926
     22925     22927     22928     22929     22928     22930     22931     22932
     22931     22933     22934     22935     22934     22936     22937     22938
     22937     22939     22940     22941     22940     22942     22943     22944
     22943     22945     22946     22947     22946     22948     22949     22950
     22949     22951     22952     22953     22952     22954     22955     22956
     22955     22957     22958     22959     22958     22960     22961     22962
     22961     22963     22964     22965     22964     22966     22967     22968
     22967     22969     22970     22971     22970     22972     22973     22974
     22973     22975     22976     22977     22976     22978     22979     22980
     22979     22981     22982     22983     22982     22984     22985     22986
     22985     22987     22988     22989     22988     22990     22991     22992
     22991     22993     22994     22995     22994     22996     22997     22998
     22997     22999     23000     23001     23000     23002     23003     23004
     23003     23005     23006     23007     23006     23008     23009     23010
     23009     23011     23012     23013     23012     23014     23015     23016
     23015     23017     23018     23019     23018     23020     23021     23022
     23021     23023     23024     23025     23024     23026     23027     23028
     23027     23029     23030     23031     23030     23032     23033     23034
     23033     23035     23036     23037     23036     23038     23039     23040
     23039     23041     23042     23043     23042     23044     23045     23046
     23045     23047     23048     23049     23048     23050     23051     23052
     23051     23053     23054     23055     23054     23056     23057     23058
     23057     23059     23060     23061     23060     23062     23063     23064
     23063     23065     23066     23067     23066     23068     23069     23070
     23069     23071     23072     23073     23072     23074     23075     23076
     23075     23077     23078     23079     23078     23080     23081     23082
     23081     23083     23084     23085     23084     23086     23087     23088
     23087     23089     23090     23091     23090     23092     23093     23094
     23093     23095     23096     23097     23096     23098     23099     23100
     23099     23101     23102     23103     23102     23104     23105     23106
     23105     23107     23108     23109     23108     23110     23111     23112
     23111     23113     23114     23115     23114     23116     23117     23118
     23117     23119     23120     23121     23120     23122     23123     23124
     23123     23125     23126     23127     23126     23128     23129     23130
     23129     23131     23132     23133     23132     23134     23135     23136
     23135     23137     23138     23139     23138     23140     23141     23142
     23141     23143     23144     23145     23144     23146     23147     23148
     23147     23149     23150     23151     23150     23152     23153     23154
     23153     23155     23156     23157     23156     23158     23159     23160
     23159     23161     23162     23163     23162     23164     23165     23166
     23165     23167     23168     23169     23168     23170     23171     23172
     23171     23173     23174     23175     23174     23176     23177     23178
     23177     23179     23180     23181     23180     23182     23183     23184
     23183     23185     23186     23187     23186     23188     23189     23190
     23189     23191     23192     23193     23192     23194     23195     23196
     23195     23197     23198     23199     23198     23200     23201     23202
     23201     23203     23204     23205     23204     23206     23207     23208
     23207     23209     23210     23211     23210     23212     23213     23214
     23213     23215     23216     23217     23216     23218     23219     23220
     23219     23221     23222     23223     23222     23224     23225     23226
     23225     23227     23228     23229     23228     23230     23231     23232
     23231     23233     23234     23235     23234     23236     23237     23238
     23237     23239     23240     23241     23240     23242     23243     23244
     23243     23245     23246     23247     23246     23248     23249     23250
     23249     23251     23252     23253     23252     23254     23255     23256
     23255     23257     23258     23259     23258     23260     23261     23262
     23261     23263     23264     23265     23264     23266     23267     23268
     23267     23269     23270     23271     23270     23272     23273     23274
     23273     23275     23276     23277     23276     23278     23279     23280
     23279     23281     23282     23283     23282     23284     23285     23286
     23285     23287     23288     23289     23288     23290     23291     23292
     23291     23293     23294     23295     23294     23296     23297     23298
     23297     23299     23300     23301     23300     23302     23303     23304
     23303     23305     23306     23307     23306     23308     23309     23310
     23309     23311     23312     23313     23312     23314     23315     23316
     23315     23317     23318     23319     23318     23320     23321     23322
     23321     23323     23324     23325     23324     23326     23327     23328
     23327     23329     23330     23331     23330     23332     23333     23334
     23333     23335     23336     23337     23336     23338     23339     23340
     23339     23341     23342     23343     23342     23344     23345     23346
     23345     23347     23348     23349     23348     23350     23351     23352
     23351     23353     23354     23355     23354     23356     23357     23358
     23357     23359     23360     23361     23360     23362     23363     23364
     23363     23365     23366     23367     23366     23368     23369     23370
     23369     23371     23372     23373     23372     23374     23375     23376
     23375     23377     23378     23379     23378     23380     23381     23382
     23381     23383     23384     23385     23384     23386     23387     23388
     23387     23389     23390     23391     23390     23392     23393     23394
     23393     23395     23396     23397     23396     23398     23399     23400
     23399     23401     23402     23403     23402     23404     23405     23406
     23405     23407     23408     23409     23408     23410     23411     23412
     23411     23413     23414     23415     23414     23416     23417     23418
     23417     23419     23420     23421     23420     23422     23423     23424
     23423     23425     23426     23427     23426     23428     23429     23430
     23429     23431     23432     23433     23432     23434     23435     23436
     23435     23437     23438     23439     23438     23440     23441     23442
     23441     23443     23444     23445     23444     23446     23447     23448
     23447     23449     23450     23451     23450     23452     23453     23454
     23453     23455     23456     23457     23456     23458     23459     23460
     23459     23461     23462     23463     23462     23464     23465     23466
     23465     23467     23468     23469     23468     23470     23471     23472
     23471     23473     23474     23475     23474     23476     23477     23478
     23477     23479     23480     23481     23480     23482     23483     23484
     23483     23485     23486     23487     23486     23488     23489     23490
     23489     23491     23492     23493     23492     23494     23495     23496
     23495     23497     23498     23499     23498     23500     23501     23502
     23501     23503     23504     23505     23504     23506     23507     23508
     23507     23509     23510     23511     23510     23512     23513     23514
     23513     23515     23516     23517     23516     23518     23519     23520
     23519     23521     23522     23523     23522     23524     23525     23526
     23525     23527     23528     23529     23528     23530     23531     23532
     23531     23533     23534     23535     23534     23536     23537     23538
     23537     23539     23540     23541     23540     23542     23543     23544
     23543     23545     23546     23547     23546     23548     23549     23550
     23549     23551     23552     23553     23552     23554     23555     23556
     23555     23557     23558     23559     23558     23560     23561     23562
     23561     23563     23564     23565     23564     23566     23567     23568
     23567     23569     23570     23571     23570     23572     23573     23574
     23573     23575     23576     23577     23576     23578     23579     23580
     23579     23581     23582     23583     23582     23584     23585     23586
     23585     23587     23588     23589     23588     23590     23591     23592
     23591     23593     23594     23595     23594     23596     23597     23598
     23597     23599     23600     23601     23600     23602     23603     23604
     23603     23605     23606     23607     23606     23608     23609     23610
     23609     23611     23612     23613     23612     23614     23615     23616
     23615     23617     23618     23619     23618     23620     23621     23622
     23621     23623     23624     23625     23624     23626     23627     23628
     23627     23629     23630     23631     23630     23632     23633     23634
     23633     23635     23636     23637     23636     23638     23639     23640
     23639     23641     23642     23643     23642     23644     23645     23646
     23645     23647     23648     23649     23648     23650     23651     23652
     23651     23653     23654     23655     23654     23656     23657     23658
     23657     23659     23660     23661     23660     23662     23663     23664
     23663     23665     23666     23667     23666     23668     23669     23670
     23669     23671     23672     23673     23672     23674     23675     23676
     23675     23677     23678     23679     23678     23680     23681     23682
     23681     23683     23684     23685     23684     23686     23687     23688
     23687     23689     23690     23691     23690     23692     23693     23694
     23693     23695     23696     23697     23696     23698     23699     23700
     23699     23701     23702     23703     23702     23704     23705     23706
     23705     23707     23708     23709     23708     23710     23711     23712
     23711     23713     23714     23715     23714     23716     23717     23718
     23717     23719     23720     23721     23720     23722     23723     23724
     23723     23725     23726     23727     23726     23728     23729     23730
     23729     23731     23732     23733     23732     23734     23735     23736
     23735     23737     23738     23739     23738     23740     23741     23742
     23741     23743     23744     23745     23744     23746     23747     23748
     23747     23749     23750     23751     23750     23752     23753     23754
     23753     23755     23756     23757     23756     23758     23759     23760
     23759     23761     23762     23763     23762     23764     23765     23766
     23765     23767     23768     23769     23768     23770     23771     23772
     23771     23773     23774     23775     23774     23776     23777     23778
     23777     23779     23780     23781     23780     23782     23783     23784
     23783     23785     23786     23787     23786     23788     23789     23790
     23789     23791     23792     23793     23792     23794     23795     23796
     23795     23797     23798     23799     23798     23800     23801     23802
     23801     23803     23804     23805     23804     23806     23807     23808
     23807     23809     23810     23811     23810     23812     23813     23814
     23813     23815     23816     23817     23816     23818     23819     23820
     23819     23821     23822     23823     23822     23824     23825     23826
     23825     23827     23828     23829     23828     23830     23831     23832
     23831     23833     23834     23835     23834     23836     23837     23838
     23837     23839     23840     23841     23840     23842     23843     23844
     23843     23845     23846     23847     23846     23848     23849     23850
     23849     23851     23852     23853     23852     23854     23855     23856
     23855     23857     23858     23859     23858     23860     23861     23862
     23861     23863     23864     23865     23864     23866     23867     23868
     23867     23869     23870     23871     23870     23872     23873     23874
     23873     23875     23876     23877     23876     23878     23879     23880
     23879     23881     23882     23883     23882     23884     23885     23886
     23885     23887     23888     23889     23888     23890     23891     23892
     23891     23893     23894     23895     23894     23896     23897     23898
     23897     23899     23900     23901     23900     23902     23903     23904
     23903     23905     23906     23907     23906     23908     23909     23910
     23909     23911     23912     23913     23912     23914     23915     23916
     23915     23917     23918     23919     23918     23920     23921     23922
     23921     23923     23924     23925     23924     23926     23927     23928
     23927     23929     23930     23931     23930     23932     23933     23934
     23933     23935     23936     23937     23936     23938     23939     23940
     23939     23941     23942     23943     23942     23944     23945     23946
     23945     23947     23948     23949     23948     23950     23951     23952
     23951     23953     23954     23955     23954     23956     23957     23958
     23957     23959     23960     23961     23960     23962     23963     23964
     23963     23965     23966     23967     23966     23968     23969     23970
     23969     23971     23972     23973     23972     23974     23975     23976
     23975     23977     23978     23979     23978     23980     23981     23982
     23981     23983     23984     23985     23984     23986     23987     23988
     23987     23989     23990     23991     23990     23992     23993     23994
     23993     23995     23996     23997     23996     23998     23999     24000
     23999     24001     24002     24003     24002     24004     24005     24006
     24005     24007     24008     24009     24008     24010     24011     24012
     24011     24013     24014     24015     24014     24016     24017     24018
     24017     24019     24020     24021     24020     24022     24023     24024
     24023     24025     24026     24027     24026     24028     24029     24030
     24029     24031     24032     24033     24032     24034     24035     24036
     24035     24037     24038     24039     24038     24040     24041     24042
     24041     24043     24044     24045     24044     24046     24047     24048
     24047     24049     24050     24051     24050     24052     24053     24054
     24053     24055     24056     24057     24056     24058     24059     24060
     24059     24061     24062     24063     24062     24064     24065     24066
     24065     24067     24068     24069     24068     24070     24071     24072
     24071     24073     24074     24075     24074     24076     24077     24078
     24077     24079     24080     24081     24080     24082     24083     24084
     24083     24085     24086     24087     24086     24088     24089     24090
     24089     24091     24092     24093     24092     24094     24095     24096
     24095     24097     24098     24099     24098     24100     24101     24102
     24101     24103     24104     24105     24104     24106     24107     24108
     24107     24109     24110     24111     24110     24112     24113     24114
     24113     24115     24116     24117     24116     24118     24119     24120
     24119     24121     24122     24123     24122     24124     24125     24126
     24125     24127     24128     24129     24128     24130     24131     24132
     24131     24133     24134     24135     24134     24136     24137     24138
     24137     24139     24140     24141     24140     24142     24143     24144
     24143     24145     24146     24147     24146     24148     24149     24150
     24149     24151     24152     24153     24152     24154     24155     24156
     24155     24157     24158     24159     24158     24160     24161     24162
     24161     24163     24164     24165     24164     24166     24167     24168
     24167     24169     24170     24171     24170     24172     24173     24174
     24173     24175     24176     24177     24176     24178     24179     24180
     24179     24181     24182     24183     24182     24184     24185     24186
     24185     24187     24188     24189     24188     24190     24191     24192
     24191     24193     24194     24195     24194     24196     24197     24198
     24197     24199     24200     24201     24200     24202     24203     24204
     24203     24205     24206     24207     24206     24208     24209     24210
     24209     24211     24212     24213     24212     24214     24215     24216
     24215     24217     24218     24219     24218     24220     24221     24222
     24221     24223     24224     24225     24224     24226     24227     24228
     24227     24229     24230     24231     24230     24232     24233     24234
     24233     24235     24236     24237     24236     24238     24239     24240
     24239     24241     24242     24243     24242     24244     24245     24246
     24245     24247     24248     24249     24248     24250     24251     24252
     24251     24253     24254     24255     24254     24256     24257     24258
     24257     24259     24260     24261     24260     24262     24263     24264
     24263     24265     24266     24267     24266     24268     24269     24270
     24269     24271     24272     24273     24272     24274     24275     24276
     24275     24277     24278     24279     24278     24280     24281     24282
     24281     24283     24284     24285     24284     24286     24287     24288
     24287     24289     24290     24291     24290     24292     24293     24294
     24293     24295     24296     24297     24296     24298     24299     24300
     24299     24301     24302     24303     24302     24304     24305     24306
     24305     24307     24308     24309     24308     24310     24311     24312
     24311     24313     24314     24315     24314     24316     24317     24318
     24317     24319     24320     24321     24320     24322     24323     24324
     24323     24325     24326     24327     24326     24328     24329     24330
     24329     24331     24332     24333     24332     24334     24335     24336
     24335     24337     24338     24339     24338     24340     24341     24342
     24341     24343     24344     24345     24344     24346     24347     24348
     24347     24349     24350     24351     24350     24352     24353     24354
     24353     24355     24356     24357     24356     24358     24359     24360
     24359     24361     24362     24363     24362     24364     24365     24366
     24365     24367     24368     24369     24368     24370     24371     24372
     24371     24373     24374     24375     24374     24376     24377     24378
     24377     24379     24380     24381     24380     24382     24383     24384
     24383     24385     24386     24387     24386     24388     24389     24390
     24389     24391     24392     24393     24392     24394     24395     24396
     24395     24397     24398     24399     24398     24400     24401     24402
     24401     24403     24404     24405     24404     24406     24407     24408
     24407     24409     24410     24411     24410     24412     24413     24414
     24413     24415     24416     24417     24416     24418     24419     24420
     24419     24421     24422     24423     24422     24424     24425     24426
     24425     24427     24428     24429     24428     24430     24431     24432
     24431     24433     24434     24435     24434     24436     24437     24438
     24437     24439     24440     24441     24440     24442     24443     24444
     24443     24445     24446     24447     24446     24448     24449     24450
     24449     24451     24452     24453     24452     24454     24455     24456
     24455     24457     24458     24459     24458     24460     24461     24462
     24461     24463     24464     24465     24464     24466     24467     24468
     24467     24469     24470     24471     24470     24472     24473     24474
     24473     24475     24476     24477     24476     24478     24479     24480
     24479     24481     24482     24483     24482     24484     24485     24486
     24485     24487     24488     24489     24488     24490     24491     24492
     24491     24493     24494     24495     24494     24496     24497     24498
     24497     24499     24500     24501     24500     24502     24503     24504
     24503     24505     24506     24507     24506     24508     24509     24510
     24509     24511     24512     24513     24512     24514     24515     24516
     24515     24517     24518     24519     24518     24520     24521     24522
     24521     24523     24524     24525     24524     24526     24527     24528
     24527     24529     24530     24531     24530     24532     24533     24534
     24533     24535     24536     24537     24536     24538     24539     24540
     24539     24541     24542     24543     24542     24544     24545     24546
     24545     24547     24548     24549     24548     24550     24551     24552
     24551     24553     24554     24555     24554     24556     24557     24558
     24557     24559     24560     24561     24560     24562     24563     24564
     24563     24565     24566     24567     24566     24568     24569     24570
     24569     24571     24572     24573     24572     24574     24575     24576
     24575     24577     24578     24579     24578     24580     24581     24582
     24581     24583     24584     24585     24584     24586     24587     24588
     24587     24589     24590     24591     24590     24592     24593     24594
     24593     24595     24596     24597     24596     24598     24599     24600
     24599     24601     24602     24603     24602     24604     24605     24606
     24605     24607     24608     24609     24608     24610     24611     24612
     24611     24613     24614     24615     24614     24616     24617     24618
     24617     24619     24620     24621     24620     24622     24623     24624
     24623     24625     24626     24627     24626     24628     24629     24630
     24629     24631     24632     24633     24632     24634     24635     24636
     24635     24637     24638     24639     24638     24640     24641     24642
     24641     24643     24644     24645     24644     24646     24647     24648
     24647     24649     24650     24651     24650     24652     24653     24654
     24653     24655     24656     24657     24656     24658     24659     24660
     24659     24661     24662     24663     24662     24664     24665     24666
     24665     24667     24668     24669     24668     24670     24671     24672
     24671     24673     24674     24675     24674     24676     24677     24678
     24677     24679     24680     24681     24680     24682     24683     24684
     24683     24685     24686     24687     24686     24688     24689     24690
     24689     24691     24692     24693     24692     24694     24695     24696
     24695     24697     24698     24699     24698     24700     24701     24702
     24701     24703     24704     24705     24704     24706     24707     24708
     24707     24709     24710     24711     24710     24712     24713     24714
     24713     24715     24716     24717     24716     24718     24719     24720
     24719     24721     24722     24723     24722     24724     24725     24726
     24725     24727     24728     24729     24728     24730     24731     24732
     24731     24733     24734     24735     24734     24736     24737     24738
     24737     24739     24740     24741     24740     24742     24743     24744
     24743     24745     24746     24747     24746     24748     24749     24750
     24749     24751     24752     24753     24752     24754     24755     24756
     24755     24757     24758     24759     24758     24760     24761     24762
     24761     24763     24764     24765     24764     24766     24767     24768
     24767     24769     24770     24771     24770     24772     24773     24774
     24773     24775     24776     24777     24776     24778     24779     24780
     24779     24781     24782     24783     24782     24784     24785     24786
     24785     24787     24788     24789     24788     24790     24791     24792
     24791     24793     24794     24795     24794     24796     24797     24798
     24797     24799     24800     24801     24800     24802     24803     24804
     24803     24805     24806     24807     24806     24808     24809     24810
     24809     24811     24812     24813     24812     24814     24815     24816
     24815     24817     24818     24819     24818     24820     24821     24822
     24821     24823     24824     24825     24824     24826     24827     24828
     24827     24829     24830     24831     24830     24832     24833     24834
     24833     24835     24836     24837     24836     24838     24839     24840
     24839     24841     24842     24843     24842     24844     24845     24846
     24845     24847     24848     24849     24848     24850     24851     24852
     24851     24853     24854     24855     24854     24856     24857     24858
     24857     24859     24860     24861     24860     24862     24863     24864
     24863     24865     24866     24867     24866     24868     24869     24870
     24869     24871     24872     24873     24872     24874     24875     24876
     24875     24877     24878     24879     24878     24880     24881     24882
     24881     24883     24884     24885     24884     24886     24887     24888
     24887     24889     24890     24891     24890     24892     24893     24894
     24893     24895     24896     24897     24896     24898     24899     24900
     24899     24901     24902     24903     24902     24904     24905     24906
     24905     24907     24908     24909     24908     24910     24911     24912
     24911     24913     24914     24915     24914     24916     24917     24918
     24917     24919     24920     24921     24920     24922     24923     24924
     24923     24925     24926     24927     24926     24928     24929     24930
     24929     24931     24932     24933     24932     24934     24935     24936
     24935     24937     24938     24939     24938     24940     24941     24942
     24941     24943     24944     24945     24944     24946     24947     24948
     24947     24949     24950     24951     24950     24952     24953     24954
     24953     24955     24956     24957     24956     24958     24959     24960
     24959     24961     24962     24963     24962     24964     24965     24966
     24965     24967     24968     24969     24968     24970     24971     24972
     24971     24973     24974     24975     24974     24976     24977     24978
     24977     24979     24980     24981     24980     24982     24983     24984
     24983     24985     24986     24987     24986     24988     24989     24990
     24989     24991     24992     24993     24992     24994     24995     24996
     24995     24997     24998     24999     24998     25000     25001     25002
     25001     25003     25004     25005     25004     25006     25007     25008
     25007     25009     25010     25011     25010     25012     25013     25014
     25013     25015     25016     25017     25016     25018     25019     25020
     25019     25021     25022     25023     25022     25024     25025     25026
     25025     25027     25028     25029     25028     25030     25031     25032
     25031     25033     25034     25035     25034     25036     25037     25038
     25037     25039     25040     25041     25040     25042     25043     25044
     25043     25045     25046     25047     25046     25048     25049     25050
     25049     25051     25052     25053     25052     25054     25055     25056
     25055     25057     25058     25059     25058     25060     25061     25062
     25061     25063     25064     25065     25064     25066     25067     25068
     25067     25069     25070     25071     25070     25072     25073     25074
     25073     25075     25076     25077     25076     25078     25079     25080
     25079     25081     25082     25083     25082     25084     25085     25086
     25085     25087     25088     25089     25088     25090     25091     25092
     25091     25093     25094     25095     25094     25096     25097     25098
     25097     25099     25100     25101     25100     25102     25103     25104
     25103     25105     25106     25107     25106     25108     25109     25110
     25109     25111     25112     25113     25112     25114     25115     25116
     25115     25117     25118     25119     25118     25120     25121     25122
     25121     25123     25124     25125     25124     25126     25127     25128
     25127     25129     25130     25131     25130     25132     25133     25134
     25133     25135     25136     25137     25136     25138     25139     25140
     25139     25141     25142     25143     25142     25144     25145     25146
     25145     25147     25148     25149     25148     25150     25151     25152
     25151     25153     25154     25155     25154     25156     25157     25158
     25157     25159     25160     25161     25160     25162     25163     25164
     25163     25165     25166     25167     25166     25168     25169     25170
     25169     25171     25172     25173     25172     25174     25175     25176
     25175     25177     25178     25179     25178     25180     25181     25182
     25181     25183     25184     25185     25184     25186     25187     25188
     25187     25189     25190     25191     25190     25192     25193     25194
     25193     25195     25196     25197     25196     25198     25199     25200
     25199     25201     25202     25203     25202     25204     25205     25206
     25205     25207     25208     25209     25208     25210     25211     25212
     25211     25213     25214     25215     25214     25216     25217     25218
     25217     25219     25220     25221     25220     25222     25223     25224
     25223     25225     25226     25227     25226     25228     25229     25230
     25229     25231     25232     25233     25232     25234     25235     25236
     25235     25237     25238     25239     25238     25240     25241     25242
     25241     25243     25244     25245     25244     25246     25247     25248
     25247     25249     25250     25251     25250     25252     25253     25254
     25253     25255     25256     25257     25256     25258     25259     25260
     25259     25261     25262     25263     25262     25264     25265     25266
     25265     25267     25268     25269     25268     25270     25271     25272
     25271     25273     25274     25275     25274     25276     25277     25278
     25277     25279     25280     25281     25280     25282     25283     25284
     25283     25285     25286     25287     25286     25288     25289     25290
     25289     25291     25292     25293     25292     25294     25295     25296
     25295     25297     25298     25299     25298     25300     25301     25302
     25301     25303     25304     25305     25304     25306     25307     25308
     25307     25309     25310     25311     25310     25312     25313     25314
     25313     25315     25316     25317     25316     25318     25319     25320
     25319     25321     25322     25323     25322     25324     25325     25326
     25325     25327     25328     25329     25328     25330     25331     25332
     25331     25333     25334     25335     25334     25336     25337     25338
     25337     25339     25340     25341     25340     25342     25343     25344
     25343     25345     25346     25347     25346     25348     25349     25350
     25349     25351     25352     25353     25352     25354     25355     25356
     25355     25357     25358     25359     25358     25360     25361     25362
     25361     25363     25364     25365     25364     25366     25367     25368
     25367     25369     25370     25371     25370     25372     25373     25374
     25373     25375     25376     25377     25376     25378     25379     25380
     25379     25381     25382     25383     25382     25384     25385     25386
     25385     25387     25388     25389     25388     25390     25391     25392
     25391     25393     25394     25395     25394     25396     25397     25398
     25397     25399     25400     25401     25400     25402     25403     25404
     25403     25405     25406     25407     25406     25408     25409     25410
     25409     25411     25412     25413     25412     25414     25415     25416
     25415     25417     25418     25419     25418     25420     25421     25422
     25421     25423     25424     25425     25424     25426     25427     25428
     25427     25429     25430     25431     25430     25432     25433     25434
     25433     25435     25436     25437     25436     25438     25439     25440
     25439     25441     25442     25443     25442     25444     25445     25446
     25445     25447     25448     25449     25448     25450     25451     25452
     25451     25453     25454     25455     25454     25456     25457     25458
     25457     25459     25460     25461     25460     25462     25463     25464
     25463     25465     25466     25467     25466     25468     25469     25470
     25469     25471     25472     25473     25472     25474     25475     25476
     25475     25477     25478     25479     25478     25480     25481     25482
     25481     25483     25484     25485     25484     25486     25487     25488
     25487     25489     25490     25491     25490     25492     25493     25494
     25493     25495     25496     25497     25496     25498     25499     25500
     25499     25501     25502     25503     25502     25504     25505     25506
     25505     25507     25508     25509     25508     25510     25511     25512
     25511     25513     25514     25515     25514     25516     25517     25518
     25517     25519     25520     25521     25520     25522     25523     25524
     25523     25525     25526     25527     25526     25528     25529     25530
     25529     25531     25532     25533     25532     25534     25535     25536
     25535     25537     25538     25539     25538     25540     25541     25542
     25541     25543     25544     25545     25544     25546     25547     25548
     25547     25549     25550     25551     25550     25552     25553     25554
     25553     25555     25556     25557     25556     25558     25559     25560
     25559     25561     25562     25563     25562     25564     25565     25566
     25565     25567     25568     25569     25568     25570     25571     25572
     25571     25573     25574     25575     25574     25576     25577     25578
     25577     25579     25580     25581     25580     25582     25583     25584
     25583     25585     25586     25587     25586     25588     25589     25590
     25589     25591     25592     25593     25592     25594     25595     25596
     25595     25597     25598     25599     25598     25600     25601     25602
     25601     25603     25604     25605     25604     25606     25607     25608
     25607     25609     25610     25611     25610     25612     25613     25614
     25613     25615     25616     25617     25616     25618     25619     25620
     25619     25621     25622     25623     25622     25624     25625     25626
     25625     25627     25628     25629     25628     25630     25631     25632
     25631     25633     25634     25635     25634     25636     25637     25638
     25637     25639     25640     25641     25640     25642     25643     25644
     25643     25645     25646     25647     25646     25648     25649     25650
     25649     25651     25652     25653     25652     25654     25655     25656
     25655     25657     25658     25659     25658     25660     25661     25662
     25661     25663     25664     25665     25664     25666     25667     25668
     25667     25669     25670     25671     25670     25672     25673     25674
     25673     25675     25676     25677     25676     25678     25679     25680
     25679     25681     25682     25683     25682     25684     25685     25686
     25685     25687     25688     25689     25688     25690     25691     25692
     25691     25693     25694     25695     25694     25696     25697     25698
     25697     25699     25700     25701     25700     25702     25703     25704
     25703     25705     25706     25707     25706     25708     25709     25710
     25709     25711     25712     25713     25712     25714     25715     25716
     25715     25717     25718     25719     25718     25720     25721     25722
     25721     25723     25724     25725     25724     25726     25727     25728
     25727     25729     25730     25731     25730     25732     25733     25734
     25733     25735     25736     25737     25736     25738     25739     25740
     25739     25741     25742     25743     25742     25744     25745     25746
     25745     25747     25748     25749     25748     25750     25751     25752
     25751     25753     25754     25755     25754     25756     25757     25758
     25757     25759     25760     25761     25760     25762     25763     25764
     25763     25765     25766     25767     25766     25768     25769     25770
     25769     25771     25772     25773     25772     25774     25775     25776
     25775     25777     25778     25779     25778     25780     25781     25782
     25781     25783     25784     25785     25784     25786     25787     25788
     25787     25789     25790     25791     25790     25792     25793     25794
     25793     25795     25796     25797     25796     25798     25799     25800
     25799     25801     25802     25803     25802     25804     25805     25806
     25805     25807     25808     25809     25808     25810     25811     25812
     25811     25813     25814     25815     25814     25816     25817     25818
     25817     25819     25820     25821     25820     25822     25823     25824
     25823     25825     25826     25827     25826     25828     25829     25830
     25829     25831     25832     25833     25832     25834     25835     25836
     25835     25837     25838     25839     25838     25840     25841     25842
     25841     25843     25844     25845     25844     25846     25847     25848
     25847     25849     25850     25851     25850     25852     25853     25854
     25853     25855     25856     25857     25856     25858     25859     25860
     25859     25861     25862     25863     25862     25864     25865     25866
     25865     25867     25868     25869     25868     25870     25871     25872
     25871     25873     25874     25875     25874     25876     25877     25878
     25877     25879     25880     25881     25880     25882     25883     25884
     25883     25885     25886     25887     25886     25888     25889     25890
     25889     25891     25892     25893     25892     25894     25895     25896
     25895     25897     25898     25899     25898     25900     25901     25902
     25901     25903     25904     25905     25904     25906     25907     25908
     25907     25909     25910     25911     25910     25912     25913     25914
     25913     25915     25916     25917     25916     25918     25919     25920
     25919     25921     25922     25923     25922     25924     25925     25926
     25925     25927     25928     25929     25928     25930     25931     25932
     25931     25933     25934     25935     25934     25936     25937     25938
     25937     25939     25940     25941     25940     25942     25943     25944
     25943     25945     25946     25947     25946     25948     25949     25950
     25949     25951     25952     25953     25952     25954     25955     25956
     25955     25957     25958     25959     25958     25960     25961     25962
     25961     25963     25964     25965     25964     25966     25967     25968
     25967     25969     25970     25971     25970     25972     25973     25974
     25973     25975     25976     25977     25976     25978     25979     25980
     25979     25981     25982     25983     25982     25984     25985     25986
     25985     25987     25988     25989     25988     25990     25991     25992
     25991     25993     25994     25995     25994     25996     25997     25998
     25997     25999     26000     26001     26000     26002     26003     26004
     26003     26005     26006     26007     26006     26008     26009     26010
     26009     26011     26012     26013     26012     26014     26015     26016
     26015     26017     26018     26019     26018     26020     26021     26022
     26021     26023     26024     26025     26024     26026     26027     26028
     26027     26029     26030     26031     26030     26032     26033     26034
     26033     26035     26036     26037     26036     26038     26039     26040
     26039     26041     26042     26043     26042     26044     26045     26046
     26045     26047     26048     26049     26048     26050     26051     26052
     26051     26053     26054     26055     26054     26056     26057     26058
     26057     26059     26060     26061     26060     26062     26063     26064
     26063     26065     26066     26067     26066     26068     26069     26070
     26069     26071     26072     26073     26072     26074     26075     26076
     26075     26077     26078     26079     26078     26080     26081     26082
     26081     26083     26084     26085     26084     26086     26087     26088
     26087     26089     26090     26091     26090     26092     26093     26094
     26093     26095     26096     26097     26096     26098     26099     26100
     26099     26101     26102     26103     26102     26104     26105     26106
     26105     26107     26108     26109     26108     26110     26111     26112
     26111     26113     26114     26115     26114     26116     26117     26118
     26117     26119     26120     26121     26120     26122     26123     26124
     26123     26125     26126     26127     26126     26128     26129     26130
     26129     26131     26132     26133     26132     26134     26135     26136
     26135     26137     26138     26139     26138     26140     26141     26142
     26141     26143     26144     26145     26144     26146     26147     26148
     26147     26149     26150     26151     26150     26152     26153     26154
     26153     26155     26156     26157     26156     26158     26159     26160
     26159     26161     26162     26163     26162     26164     26165     26166
     26165     26167     26168     26169     26168     26170     26171     26172
     26171     26173     26174     26175     26174     26176     26177     26178
     26177     26179     26180     26181     26180     26182     26183     26184
     26183     26185     26186     26187     26186     26188     26189     26190
     26189     26191     26192     26193     26192     26194     26195     26196
     26195     26197     26198     26199     26198     26200     26201     26202
     26201     26203     26204     26205     26204     26206     26207     26208
     26207     26209     26210     26211     26210     26212     26213     26214
     26213     26215     26216     26217     26216     26218     26219     26220
     26219     26221     26222     26223     26222     26224     26225     26226
     26225     26227     26228     26229     26228     26230     26231     26232
     26231     26233     26234     26235     26234     26236     26237     26238
     26237     26239     26240     26241     26240     26242     26243     26244
     26243     26245     26246     26247     26246     26248     26249     26250
     26249     26251     26252     26253     26252     26254     26255     26256
     26255     26257     26258     26259     26258     26260     26261     26262
     26261     26263     26264     26265     26264     26266     26267     26268
     26267     26269     26270     26271     26270     26272     26273     26274
     26273     26275     26276     26277     26276     26278     26279     26280
     26279     26281     26282     26283     26282     26284     26285     26286
     26285     26287     26288     26289     26288     26290     26291     26292
     26291     26293     26294     26295     26294     26296     26297     26298
     26297     26299     26300     26301     26300     26302     26303     26304
     26303     26305     26306     26307     26306     26308     26309     26310
     26309     26311     26312     26313     26312     26314     26315     26316
     26315     26317     26318     26319     26318     26320     26321     26322
     26321     26323     26324     26325     26324     26326     26327     26328
     26327     26329     26330     26331     26330     26332     26333     26334
     26333     26335     26336     26337     26336     26338     26339     26340
     26339     26341     26342     26343     26342     26344     26345     26346
     26345     26347     26348     26349     26348     26350     26351     26352
     26351     26353     26354     26355     26354     26356     26357     26358
     26357     26359     26360     26361     26360     26362     26363     26364
     26363     26365     26366     26367     26366     26368     26369     26370
     26369     26371     26372     26373     26372     26374     26375     26376
     26375     26377     26378     26379     26378     26380     26381     26382
     26381     26383     26384     26385     26384     26386     26387     26388
     26387     26389     26390     26391     26390     26392     26393     26394
     26393     26395     26396     26397     26396     26398     26399     26400
     26399     26401     26402     26403     26402     26404     26405     26406
     26405     26407     26408     26409     26408     26410     26411     26412
     26411     26413     26414     26415     26414     26416     26417     26418
     26417     26419     26420     26421     26420     26422     26423     26424
     26423     26425     26426     26427     26426     26428     26429     26430
     26429     26431     26432     26433     26432     26434     26435     26436
     26435     26437     26438     26439     26438     26440     26441     26442
     26441     26443     26444     26445     26444     26446     26447     26448
     26447     26449     26450     26451     26450     26452     26453     26454
     26453     26455     26456     26457     26456     26458     26459     26460
     26459     26461     26462     26463     26462     26464     26465     26466
     26465     26467     26468     26469     26468     26470     26471     26472
     26471     26473     26474     26475     26474     26476     26477     26478
     26477     26479     26480     26481     26480     26482     26483     26484
     26483     26485     26486     26487     26486     26488     26489     26490
     26489     26491     26492     26493     26492     26494     26495     26496
     26495     26497     26498     26499     26498     26500     26501     26502
     26501     26503     26504     26505     26504     26506     26507     26508
     26507     26509     26510     26511     26510     26512     26513     26514
     26513     26515     26516     26517     26516     26518     26519     26520
     26519     26521     26522     26523     26522     26524     26525     26526
     26525     26527     26528     26529     26528     26530     26531     26532
     26531     26533     26534     26535     26534     26536     26537     26538
     26537     26539     26540     26541     26540     26542     26543     26544
     26543     26545     26546     26547     26546     26548     26549     26550
     26549     26551     26552     26553     26552     26554     26555     26556
     26555     26557     26558     26559     26558     26560     26561     26562
     26561     26563     26564     26565     26564     26566     26567     26568
     26567     26569     26570     26571     26570     26572     26573     26574
     26573     26575     26576     26577     26576     26578     26579     26580
     26579     26581     26582     26583     26582     26584     26585     26586
     26585     26587     26588     26589     26588     26590     26591     26592
     26591     26593     26594     26595     26594     26596     26597     26598
     26597     26599     26600     26601     26600     26602     26603     26604
     26603     26605     26606     26607     26606     26608     26609     26610
     26609     26611     26612     26613     26612     26614     26615     26616
     26615     26617     26618     26619     26618     26620     26621     26622
     26621     26623     26624     26625     26624     26626     26627     26628
     26627     26629     26630     26631     26630     26632     26633     26634
     26633     26635     26636     26637     26636     26638     26639     26640
     26639     26641     26642     26643     26642     26644     26645     26646
     26645     26647     26648     26649     26648     26650     26651     26652
     26651     26653     26654     26655     26654     26656     26657     26658
     26657     26659     26660     26661     26660     26662     26663     26664
     26663     26665     26666     26667     26666     26668     26669     26670
     26669     26671     26672     26673     26672     26674     26675     26676
     26675     26677     26678     26679     26678     26680     26681     26682
     26681     26683     26684     26685     26684     26686     26687     26688
     26687     26689     26690     26691     26690     26692     26693     26694
     26693     26695     26696     26697     26696     26698     26699     26700
     26699     26701     26702     26703     26702     26704     26705     26706
     26705     26707     26708     26709     26708     26710     26711     26712
     26711     26713     26714     26715     26714     26716     26717     26718
     26717     26719     26720     26721     26720     26722     26723     26724
     26723     26725     26726     26727     26726     26728     26729     26730
     26729     26731     26732     26733     26732     26734     26735     26736
     26735     26737     26738     26739     26738     26740     26741     26742
     26741     26743     26744     26745     26744     26746     26747     26748
     26747     26749     26750     26751     26750     26752     26753     26754
     26753     26755     26756     26757     26756     26758     26759     26760
     26759     26761     26762     26763     26762     26764     26765     26766
     26765     26767     26768     26769     26768     26770     26771     26772
     26771     26773     26774     26775     26774     26776     26777     26778
     26777     26779     26780     26781     26780     26782     26783     26784
     26783     26785     26786     26787     26786     26788     26789     26790
     26789     26791     26792     26793     26792     26794     26795     26796
     26795     26797     26798     26799     26798     26800     26801     26802
     26801     26803     26804     26805     26804     26806     26807     26808
     26807     26809     26810     26811     26810     26812     26813     26814
     26813     26815     26816     26817     26816     26818     26819     26820
     26819     26821     26822     26823     26822     26824     26825     26826
     26825     26827     26828     26829     26828     26830     26831     26832
     26831     26833     26834     26835     26834     26836     26837     26838
     26837     26839     26840     26841     26840     26842     26843     26844
     26843     26845     26846     26847     26846     26848     26849     26850
     26849     26851     26852     26853     26852     26854     26855     26856
     26855     26857     26858     26859     26858     26860     26861     26862
     26861     26863     26864     26865     26864     26866     26867     26868
     26867     26869     26870     26871     26870     26872     26873     26874
     26873     26875     26876     26877     26876     26878     26879     26880
     26879     26881     26882     26883     26882     26884     26885     26886
     26885     26887     26888     26889     26888     26890     26891     26892
     26891     26893     26894     26895     26894     26896     26897     26898
     26897     26899     26900     26901     26900     26902     26903     26904
     26903     26905     26906     26907     26906     26908     26909     26910
     26909     26911     26912     26913     26912     26914     26915     26916
     26915     26917     26918     26919     26918     26920     26921     26922
     26921     26923     26924     26925     26924     26926     26927     26928
     26927     26929     26930     26931     26930     26932     26933     26934
     26933     26935     26936     26937     26936     26938     26939     26940
     26939     26941     26942     26943     26942     26944     26945     26946
     26945     26947     26948     26949     26948     26950     26951     26952
     26951     26953     26954     26955     26954     26956     26957     26958
     26957     26959     26960     26961     26960     26962     26963     26964
     26963     26965     26966     26967     26966     26968     26969     26970
     26969     26971     26972     26973     26972     26974     26975     26976
     26975     26977     26978     26979     26978     26980     26981     26982
     26981     26983     26984     26985     26984     26986     26987     26988
     26987     26989     26990     26991     26990     26992     26993     26994
     26993     26995     26996     26997     26996     26998     26999     27000
     26999     27001     27002     27003     27002     27004     27005     27006
     27005     27007     27008     27009     27008     27010     27011     27012
     27011     27013     27014     27015     27014     27016     27017     27018
     27017     27019     27020     27021     27020     27022     27023     27024
     27023     27025     27026     27027     27026     27028     27029     27030
     27029     27031     27032     27033     27032     27034     27035     27036
     27035     27037     27038     27039     27038     27040     27041     27042
     27041     27043     27044     27045     27044     27046     27047     27048
     27047     27049     27050     27051     27050     27052     27053     27054
     27053     27055     27056     27057     27056     27058     27059     27060
     27059     27061     27062     27063     27062     27064     27065     27066
     27065     27067     27068     27069     27068     27070     27071     27072
     27071     27073     27074     27075     27074     27076     27077     27078
     27077     27079     27080     27081     27080     27082     27083     27084
     27083     27085     27086     27087     27086     27088     27089     27090
     27089     27091     27092     27093     27092     27094     27095     27096
     27095     27097     27098     27099     27098     27100     27101     27102
     27101     27103     27104     27105     27104     27106     27107     27108
     27107     27109     27110     27111     27110     27112     27113     27114
     27113     27115     27116     27117     27116     27118     27119     27120
     27119     27121     27122     27123     27122     27124     27125     27126
     27125     27127     27128     27129     27128     27130     27131     27132
     27131     27133     27134     27135     27134     27136     27137     27138
     27137     27139     27140     27141     27140     27142     27143     27144
     27143     27145     27146     27147     27146     27148     27149     27150
     27149     27151     27152     27153     27152     27154     27155     27156
     27155     27157     27158     27159     27158     27160     27161     27162
     27161     27163     27164     27165     27164     27166     27167     27168
     27167     27169     27170     27171     27170     27172     27173     27174
     27173     27175     27176     27177     27176     27178     27179     27180
     27179     27181     27182     27183     27182     27184     27185     27186
     27185     27187     27188     27189     27188     27190     27191     27192
     27191     27193     27194     27195     27194     27196     27197     27198
     27197     27199     27200     27201     27200     27202     27203     27204
     27203     27205     27206     27207     27206     27208     27209     27210
     27209     27211     27212     27213     27212     27214     27215     27216
     27215     27217     27218     27219     27218     27220     27221     27222
     27221     27223     27224     27225     27224     27226     27227     27228
     27227     27229     27230     27231     27230     27232     27233     27234
     27233     27235     27236     27237     27236     27238     27239     27240
     27239     27241     27242     27243     27242     27244     27245     27246
     27245     27247     27248     27249     27248     27250     27251     27252
     27251     27253     27254     27255     27254     27256     27257     27258
     27257     27259     27260     27261     27260     27262     27263     27264
     27263     27265     27266     27267     27266     27268     27269     27270
     27269     27271     27272     27273     27272     27274     27275     27276
     27275     27277     27278     27279     27278     27280     27281     27282
     27281     27283     27284     27285     27284     27286     27287     27288
     27287     27289     27290     27291     27290     27292     27293     27294
     27293     27295     27296     27297     27296     27298     27299     27300
     27299     27301     27302     27303     27302     27304     27305     27306
     27305     27307     27308     27309     27308     27310     27311     27312
     27311     27313     27314     27315     27314     27316     27317     27318
     27317     27319     27320     27321     27320     27322     27323     27324
     27323     27325     27326     27327     27326     27328     27329     27330
     27329     27331     27332     27333     27332     27334     27335     27336
     27335     27337     27338     27339     27338     27340     27341     27342
     27341     27343     27344     27345     27344     27346     27347     27348
     27347     27349     27350     27351     27350     27352     27353     27354
     27353     27355     27356     27357     27356     27358     27359     27360
     27359     27361     27362     27363     27362     27364     27365     27366
     27365     27367     27368     27369     27368     27370     27371     27372
     27371     27373     27374     27375     27374     27376     27377     27378
     27377     27379     27380     27381     27380     27382     27383     27384
     27383     27385     27386     27387     27386     27388     27389     27390
     27389     27391     27392     27393     27392     27394     27395     27396
     27395     27397     27398     27399     27398     27400     27401     27402
     27401     27403     27404     27405     27404     27406     27407     27408
     27407     27409     27410     27411     27410     27412     27413     27414
     27413     27415     27416     27417     27416     27418     27419     27420
     27419     27421     27422     27423     27422     27424     27425     27426
     27425     27427     27428     27429     27428     27430     27431     27432
     27431     27433     27434     27435     27434     27436     27437     27438
     27437     27439     27440     27441     27440     27442     27443     27444
     27443     27445     27446     27447     27446     27448     27449     27450
     27449     27451     27452     27453     27452     27454     27455     27456
     27455     27457     27458     27459     27458     27460     27461     27462
     27461     27463     27464     27465     27464     27466     27467     27468
     27467     27469     27470     27471     27470     27472     27473     27474
     27473     27475     27476     27477     27476     27478     27479     27480
     27479     27481     27482     27483     27482     27484     27485     27486
     27485     27487     27488     27489     27488     27490     27491     27492
     27491     27493     27494     27495     27494     27496     27497     27498
     27497     27499     27500     27501     27500     27502     27503     27504
     27503     27505     27506     27507     27506     27508     27509     27510
     27509     27511     27512     27513     27512     27514     27515     27516
     27515     27517     27518     27519     27518     27520     27521     27522
     27521     27523     27524     27525     27524     27526     27527     27528
     27527     27529     27530     27531     27530     27532     27533     27534
     27533     27535     27536     27537     27536     27538     27539     27540
     27539     27541     27542     27543     27542     27544     27545     27546
     27545     27547     27548     27549     27548     27550     27551     27552
     27551     27553     27554     27555     27554     27556     27557     27558
     27557     27559     27560     27561     27560     27562     27563     27564
     27563     27565     27566     27567     27566     27568     27569     27570
     27569     27571     27572     27573     27572     27574     27575     27576
     27575     27577     27578     27579     27578     27580     27581     27582
     27581     27583     27584     27585     27584     27586     27587     27588
     27587     27589     27590     27591     27590     27592     27593     27594
     27593     27595     27596     27597     27596     27598     27599     27600
     27599     27601     27602     27603     27602     27604     27605     27606
     27605     27607     27608     27609     27608     27610     27611     27612
     27611     27613     27614     27615     27614     27616     27617     27618
     27617     27619     27620     27621     27620     27622     27623     27624
     27623     27625     27626     27627     27626     27628     27629     27630
     27629     27631     27632     27633     27632     27634     27635     27636
     27635     27637     27638     27639     27638     27640     27641     27642
     27641     27643     27644     27645     27644     27646     27647     27648
     27647     27649     27650     27651     27650     27652     27653     27654
     27653     27655     27656     27657     27656     27658     27659     27660
     27659     27661     27662     27663     27662     27664     27665     27666
     27665     27667     27668     27669     27668     27670     27671     27672
     27671     27673     27674     27675     27674     27676     27677     27678
     27677     27679     27680     27681     27680     27682     27683     27684
     27683     27685     27686     27687     27686     27688     27689     27690
     27689     27691     27692     27693     27692     27694     27695     27696
     27695     27697     27698     27699     27698     27700     27701     27702
     27701     27703     27704     27705     27704     27706     27707     27708
     27707     27709     27710     27711     27710     27712     27713     27714
     27713     27715     27716     27717     27716     27718     27719     27720
     27719     27721     27722     27723     27722     27724     27725     27726
     27725     27727     27728     27729     27728     27730     27731     27732
     27731     27733     27734     27735     27734     27736     27737     27738
     27737     27739     27740     27741     27740     27742     27743     27744
     27743     27745     27746     27747     27746     27748     27749     27750
     27749     27751     27752     27753     27752     27754     27755     27756
     27755     27757     27758     27759     27758     27760     27761     27762
     27761     27763     27764     27765     27764     27766     27767     27768
     27767     27769     27770     27771     27770     27772     27773     27774
     27773     27775     27776     27777     27776     27778     27779     27780
     27779     27781     27782     27783     27782     27784     27785     27786
     27785     27787     27788     27789     27788     27790     27791     27792
     27791     27793     27794     27795     27794     27796     27797     27798
     27797     27799     27800     27801     27800     27802     27803     27804
     27803     27805     27806     27807     27806     27808     27809     27810
     27809     27811     27812     27813     27812     27814     27815     27816
     27815     27817     27818     27819     27818     27820     27821     27822
     27821     27823     27824     27825     27824     27826     27827     27828
     27827     27829     27830     27831     27830     27832     27833     27834
     27833     27835     27836     27837     27836     27838     27839     27840
     27839     27841     27842     27843     27842     27844     27845     27846
     27845     27847     27848     27849     27848     27850     27851     27852
     27851     27853     27854     27855     27854     27856     27857     27858
     27857     27859     27860     27861     27860     27862     27863     27864
     27863     27865     27866     27867     27866     27868     27869     27870
     27869     27871     27872     27873     27872     27874     27875     27876
     27875     27877     27878     27879     27878     27880     27881     27882
     27881     27883     27884     27885     27884     27886     27887     27888
     27887     27889     27890     27891     27890     27892     27893     27894
     27893     27895     27896     27897     27896     27898     27899     27900
     27899     27901     27902     27903     27902     27904     27905     27906
     27905     27907     27908     27909     27908     27910     27911     27912
     27911     27913     27914     27915     27914     27916     27917     27918
     27917     27919     27920     27921     27920     27922     27923     27924
     27923     27925     27926     27927     27926     27928     27929     27930
     27929     27931     27932     27933     27932     27934     27935     27936
     27935     27937     27938     27939     27938     27940     27941     27942
     27941     27943     27944     27945     27944     27946     27947     27948
     27947     27949     27950     27951     27950     27952     27953     27954
     27953     27955     27956     27957     27956     27958     27959     27960
     27959     27961     27962     27963     27962     27964     27965     27966
     27965     27967     27968     27969     27968     27970     27971     27972
     27971     27973     27974     27975     27974     27976     27977     27978
     27977     27979     27980     27981     27980     27982     27983     27984
     27983     27985     27986     27987     27986     27988     27989     27990
     27989     27991     27992     27993     27992     27994     27995     27996
     27995     27997     27998     27999     27998     28000     28001     28002
     28001     28003     28004     28005     28004     28006     28007     28008
     28007     28009     28010     28011     28010     28012     28013     28014
     28013     28015     28016     28017     28016     28018     28019     28020
     28019     28021     28022     28023     28022     28024     28025     28026
     28025     28027     28028     28029     28028     28030     28031     28032
     28031     28033     28034     28035     28034     28036     28037     28038
     28037     28039     28040     28041     28040     28042     28043     28044
     28043     28045     28046     28047     28046     28048     28049     28050
     28049     28051     28052     28053     28052     28054     28055     28056
     28055     28057     28058     28059     28058     28060     28061     28062
     28061     28063     28064     28065     28064     28066     28067     28068
     28067     28069     28070     28071     28070     28072     28073     28074
     28073     28075     28076     28077     28076     28078     28079     28080
     28079     28081     28082     28083     28082     28084     28085     28086
     28085     28087     28088     28089     28088     28090     28091     28092
     28091     28093     28094     28095     28094     28096     28097     28098
     28097     28099     28100     28101     28100     28102     28103     28104
     28103     28105     28106     28107     28106     28108     28109     28110
     28109     28111     28112     28113     28112     28114     28115     28116
     28115     28117     28118     28119     28118     28120     28121     28122
     28121     28123     28124     28125     28124     28126     28127     28128
     28127     28129     28130     28131     28130     28132     28133     28134
     28133     28135     28136     28137     28136     28138     28139     28140
     28139     28141     28142     28143     28142     28144     28145     28146
     28145     28147     28148     28149     28148     28150     28151     28152
     28151     28153     28154     28155     28154     28156     28157     28158
     28157     28159     28160     28161     28160     28162     28163     28164
     28163     28165     28166     28167     28166     28168     28169     28170
     28169     28171     28172     28173     28172     28174     28175     28176
     28175     28177     28178     28179     28178     28180     28181     28182
     28181     28183     28184     28185     28184     28186     28187     28188
     28187     28189     28190     28191     28190     28192     28193     28194
     28193     28195     28196     28197     28196     28198     28199     28200
     28199     28201     28202     28203     28202     28204     28205     28206
     28205     28207     28208     28209     28208     28210     28211     28212
     28211     28213     28214     28215     28214     28216     28217     28218
     28217     28219     28220     28221     28220     28222     28223     28224
     28223     28225     28226     28227     28226     28228     28229     28230
     28229     28231     28232     28233     28232     28234     28235     28236
     28235     28237     28238     28239     28238     28240     28241     28242
     28241     28243     28244     28245     28244     28246     28247     28248
     28247     28249     28250     28251     28250     28252     28253     28254
     28253     28255     28256     28257     28256     28258     28259     28260
     28259     28261     28262     28263     28262     28264     28265     28266
     28265     28267     28268     28269     28268     28270     28271     28272
     28271     28273     28274     28275     28274     28276     28277     28278
     28277     28279     28280     28281     28280     28282     28283     28284
     28283     28285     28286     28287     28286     28288     28289     28290
     28289     28291     28292     28293     28292     28294     28295     28296
     28295     28297     28298     28299     28298     28300     28301     28302
     28301     28303     28304     28305     28304     28306     28307     28308
     28307     28309     28310     28311     28310     28312     28313     28314
     28313     28315     28316     28317     28316     28318     28319     28320
     28319     28321     28322     28323     28322     28324     28325     28326
     28325     28327     28328     28329     28328     28330     28331     28332
     28331     28333     28334     28335     28334     28336     28337     28338
     28337     28339     28340     28341     28340     28342     28343     28344
     28343     28345     28346     28347     28346     28348     28349     28350
     28349     28351     28352     28353     28352     28354     28355     28356
     28355     28357     28358     28359     28358     28360     28361     28362
     28361     28363     28364     28365     28364     28366     28367     28368
     28367     28369     28370     28371     28370     28372     28373     28374
     28373     28375     28376     28377     28376     28378     28379     28380
     28379     28381     28382     28383     28382     28384     28385     28386
     28385     28387     28388     28389     28388     28390     28391     28392
     28391     28393     28394     28395     28394     28396     28397     28398
     28397     28399     28400     28401     28400     28402     28403     28404
     28403     28405     28406     28407     28406     28408     28409     28410
     28409     28411     28412     28413     28412     28414     28415     28416
     28415     28417     28418     28419     28418     28420     28421     28422
     28421     28423     28424     28425     28424     28426     28427     28428
     28427     28429     28430     28431     28430     28432     28433     28434
     28433     28435     28436     28437     28436     28438     28439     28440
     28439     28441     28442     28443     28442     28444     28445     28446
     28445     28447     28448     28449     28448     28450     28451     28452
     28451     28453     28454     28455     28454     28456     28457     28458
     28457     28459     28460     28461     28460     28462     28463     28464
     28463     28465     28466     28467     28466     28468     28469     28470
     28469     28471     28472     28473     28472     28474     28475     28476
     28475     28477     28478     28479     28478     28480     28481     28482
     28481     28483     28484     28485     28484     28486     28487     28488
     28487     28489     28490     28491     28490     28492     28493     28494
     28493     28495     28496     28497     28496     28498     28499     28500
     28499     28501     28502     28503     28502     28504     28505     28506
     28505     28507     28508     28509     28508     28510     28511     28512
     28511     28513     28514     28515     28514     28516     28517     28518
     28517     28519     28520     28521     28520     28522     28523     28524
     28523     28525     28526     28527     28526     28528     28529     28530
     28529     28531     28532     28533     28532     28534     28535     28536
     28535     28537     28538     28539     28538     28540     28541     28542
     28541     28543     28544     28545     28544     28546     28547     28548
     28547     28549     28550     28551     28550     28552     28553     28554
     28553     28555     28556     28557     28556     28558     28559     28560
     28559     28561     28562     28563     28562     28564     28565     28566
     28565     28567     28568     28569     28568     28570     28571     28572
     28571     28573     28574     28575     28574     28576     28577     28578
     28577     28579     28580     28581     28580     28582     28583     28584
     28583     28585     28586     28587     28586     28588     28589     28590
     28589     28591     28592     28593     28592     28594     28595     28596
     28595     28597     28598     28599     28598     28600     28601     28602
     28601     28603     28604     28605     28604     28606     28607     28608
     28607     28609     28610     28611     28610     28612     28613     28614
     28613     28615     28616     28617     28616     28618     28619     28620
     28619     28621     28622     28623     28622     28624     28625     28626
     28625     28627     28628     28629     28628     28630     28631     28632
     28631     28633     28634     28635     28634     28636     28637     28638
     28637     28639     28640     28641     28640     28642     28643     28644
     28643     28645     28646     28647     28646     28648     28649     28650
     28649     28651     28652     28653     28652     28654     28655     28656
     28655     28657     28658     28659     28658     28660     28661     28662
     28661     28663     28664     28665     28664     28666     28667     28668
     28667     28669     28670     28671     28670     28672     28673     28674
     28673     28675     28676     28677     28676     28678     28679     28680
     28679     28681     28682     28683     28682     28684     28685     28686
     28685     28687     28688     28689     28688     28690     28691     28692
     28691     28693     28694     28695     28694     28696     28697     28698
     28697     28699     28700     28701     28700     28702     28703     28704
     28703     28705     28706     28707     28706     28708     28709     28710
     28709     28711     28712     28713     28712     28714     28715     28716
     28715     28717     28718     28719     28718     28720     28721     28722
     28721     28723     28724     28725     28724     28726     28727     28728
     28727     28729     28730     28731     28730     28732     28733     28734
     28733     28735     28736     28737     28736     28738     28739     28740
     28739     28741     28742     28743     28742     28744     28745     28746
     28745     28747     28748     28749     28748     28750     28751     28752
     28751     28753     28754     28755     28754     28756     28757     28758
     28757     28759     28760     28761     28760     28762     28763     28764
     28763     28765     28766     28767     28766     28768     28769     28770
     28769     28771     28772     28773     28772     28774     28775     28776
     28775     28777     28778     28779     28778     28780     28781     28782
     28781     28783     28784     28785     28784     28786     28787     28788
     28787     28789     28790     28791     28790     28792     28793     28794
     28793     28795     28796     28797     28796     28798     28799     28800
     28799     28801     28802     28803     28802     28804     28805     28806
     28805     28807     28808     28809     28808     28810     28811     28812
     28811     28813     28814     28815     28814     28816     28817     28818
     28817     28819     28820     28821     28820     28822     28823     28824
     28823     28825     28826     28827     28826     28828     28829     28830
     28829     28831     28832     28833     28832     28834     28835     28836
     28835     28837     28838     28839     28838     28840     28841     28842
     28841     28843     28844     28845     28844     28846     28847     28848
     28847     28849     28850     28851     28850     28852     28853     28854
     28853     28855     28856     28857     28856     28858     28859     28860
     28859     28861     28862     28863     28862     28864     28865     28866
     28865     28867     28868     28869     28868     28870     28871     28872
     28871     28873     28874     28875     28874     28876     28877     28878
     28877     28879     28880     28881     28880     28882     28883     28884
     28883     28885     28886     28887     28886     28888     28889     28890
     28889     28891     28892     28893     28892     28894     28895     28896
     28895     28897     28898     28899     28898     28900     28901     28902
     28901     28903     28904     28905     28904     28906     28907     28908
     28907     28909     28910     28911     28910     28912     28913     28914
     28913     28915     28916     28917     28916     28918     28919     28920
     28919     28921     28922     28923     28922     28924     28925     28926
     28925     28927     28928     28929     28928     28930     28931     28932
     28931     28933     28934     28935     28934     28936     28937     28938
     28937     28939     28940     28941     28940     28942     28943     28944
     28943     28945     28946     28947     28946     28948     28949     28950
     28949     28951     28952     28953     28952     28954     28955     28956
     28955     28957     28958     28959     28958     28960     28961     28962
     28961     28963     28964     28965     28964     28966     28967     28968
     28967     28969     28970     28971     28970     28972     28973     28974
     28973     28975     28976     28977     28976     28978     28979     28980
     28979     28981     28982     28983     28982     28984     28985     28986
     28985     28987     28988     28989     28988     28990     28991     28992
     28991     28993     28994     28995     28994     28996     28997     28998
     28997     28999     29000     29001     29000     29002     29003     29004
     29003     29005     29006     29007     29006     29008     29009     29010
     29009     29011     29012     29013     29012     29014     29015     29016
     29015     29017     29018     29019     29018     29020     29021     29022
     29021     29023     29024     29025     29024     29026     29027     29028
     29027     29029     29030     29031     29030     29032     29033     29034
     29033     29035     29036     29037     29036     29038     29039     29040
     29039     29041     29042     29043     29042     29044     29045     29046
     29045     29047     29048     29049     29048     29050     29051     29052
     29051     29053     29054     29055     29054     29056     29057     29058
     29057     29059     29060     29061     29060     29062     29063     29064
     29063     29065     29066     29067     29066     29068     29069     29070
     29069     29071     29072     29073     29072     29074     29075     29076
     29075     29077     29078     29079     29078     29080     29081     29082
     29081     29083     29084     29085     29084     29086     29087     29088
     29087     29089     29090     29091     29090     29092     29093     29094
     29093     29095     29096     29097     29096     29098     29099     29100
     29099     29101     29102     29103     29102     29104     29105     29106
     29105     29107     29108     29109     29108     29110     29111     29112
     29111     29113     29114     29115     29114     29116     29117     29118
     29117     29119     29120     29121     29120     29122     29123     29124
     29123     29125     29126     29127     29126     29128     29129     29130
     29129     29131     29132     29133     29132     29134     29135     29136
     29135     29137     29138     29139     29138     29140     29141     29142
     29141     29143     29144     29145     29144     29146     29147     29148
     29147     29149     29150     29151     29150     29152     29153     29154
     29153     29155     29156     29157     29156     29158     29159     29160
     29159     29161     29162     29163     29162     29164     29165     29166
     29165     29167     29168     29169     29168     29170     29171     29172
     29171     29173     29174     29175     29174     29176     29177     29178
     29177     29179     29180     29181     29180     29182     29183     29184
     29183     29185     29186     29187     29186     29188     29189     29190
     29189     29191     29192     29193     29192     29194     29195     29196
     29195     29197     29198     29199     29198     29200     29201     29202
     29201     29203     29204     29205     29204     29206     29207     29208
     29207     29209     29210     29211     29210     29212     29213     29214
     29213     29215     29216     29217     29216     29218     29219     29220
     29219     29221     29222     29223     29222     29224     29225     29226
     29225     29227     29228     29229     29228     29230     29231     29232
     29231     29233     29234     29235     29234     29236     29237     29238
     29237     29239     29240     29241     29240     29242     29243     29244
     29243     29245     29246     29247     29246     29248     29249     29250
     29249     29251     29252     29253     29252     29254     29255     29256
     29255     29257     29258     29259     29258     29260     29261     29262
     29261     29263     29264     29265     29264     29266     29267     29268
     29267     29269     29270     29271     29270     29272     29273     29274
     29273     29275     29276     29277     29276     29278     29279     29280
     29279     29281     29282     29283     29282     29284     29285     29286
     29285     29287     29288     29289     29288     29290     29291     29292
     29291     29293     29294     29295     29294     29296     29297     29298
     29297     29299     29300     29301     29300     29302     29303     29304
     29303     29305     29306     29307     29306     29308     29309     29310
     29309     29311     29312     29313     29312     29314     29315     29316
     29315     29317     29318     29319     29318     29320     29321     29322
     29321     29323     29324     29325     29324     29326     29327     29328
     29327     29329     29330     29331     29330     29332     29333     29334
     29333     29335     29336     29337     29336     29338     29339     29340
     29339     29341     29342     29343     29342     29344     29345     29346
     29345     29347     29348     29349     29348     29350     29351     29352
     29351     29353     29354     29355     29354     29356     29357     29358
     29357     29359     29360     29361     29360     29362     29363     29364
     29363     29365     29366     29367     29366     29368     29369     29370
     29369     29371     29372     29373     29372     29374     29375     29376
     29375     29377     29378     29379     29378     29380     29381     29382
     29381     29383     29384     29385     29384     29386     29387     29388
     29387     29389     29390     29391     29390     29392     29393     29394
     29393     29395     29396     29397     29396     29398     29399     29400
     29399     29401     29402     29403     29402     29404     29405     29406
     29405     29407     29408     29409     29408     29410     29411     29412
     29411     29413     29414     29415     29414     29416     29417     29418
     29417     29419     29420     29421     29420     29422     29423     29424
     29423     29425     29426     29427     29426     29428     29429     29430
     29429     29431     29432     29433     29432     29434     29435     29436
     29435     29437     29438     29439     29438     29440     29441     29442
     29441     29443     29444     29445     29444     29446     29447     29448
     29447     29449     29450     29451     29450     29452     29453     29454
     29453     29455     29456     29457     29456     29458     29459     29460
     29459     29461     29462     29463     29462     29464     29465     29466
     29465     29467     29468     29469     29468     29470     29471     29472
     29471     29473     29474     29475     29474     29476     29477     29478
     29477     29479     29480     29481     29480     29482     29483     29484
     29483     29485     29486     29487     29486     29488     29489     29490
     29489     29491     29492     29493     29492     29494     29495     29496
     29495     29497     29498     29499     29498     29500     29501     29502
     29501     29503     29504     29505     29504     29506     29507     29508
     29507     29509     29510     29511     29510     29512     29513     29514
     29513     29515     29516     29517     29516     29518     29519     29520
     29519     29521     29522     29523     29522     29524     29525     29526
     29525     29527     29528     29529     29528     29530     29531     29532
     29531     29533     29534     29535     29534     29536     29537     29538
     29537     29539     29540     29541     29540     29542     29543     29544
     29543     29545     29546     29547     29546     29548     29549     29550
     29549     29551     29552     29553     29552     29554     29555     29556
     29555     29557     29558     29559     29558     29560     29561     29562
     29561     29563     29564     29565     29564     29566     29567     29568
     29567     29569     29570     29571     29570     29572     29573     29574
     29573     29575     29576     29577     29576     29578     29579     29580
     29579     29581     29582     29583     29582     29584     29585     29586
     29585     29587     29588     29589     29588     29590     29591     29592
     29591     29593     29594     29595     29594     29596     29597     29598
     29597     29599     29600     29601     29600     29602     29603     29604
     29603     29605     29606     29607     29606     29608     29609     29610
     29609     29611     29612     29613     29612     29614     29615     29616
     29615     29617     29618     29619     29618     29620     29621     29622
     29621     29623     29624     29625     29624     29626     29627     29628
     29627     29629     29630     29631     29630     29632     29633     29634
     29633     29635     29636     29637     29636     29638     29639     29640
     29639     29641     29642     29643     29642     29644     29645     29646
     29645     29647     29648     29649     29648     29650     29651     29652
     29651     29653     29654     29655     29654     29656     29657     29658
     29657     29659     29660     29661     29660     29662     29663     29664
     29663     29665     29666     29667     29666     29668     29669     29670
     29669     29671     29672     29673     29672     29674     29675     29676
     29675     29677     29678     29679     29678     29680     29681     29682
     29681     29683     29684     29685     29684     29686     29687     29688
     29687     29689     29690     29691     29690     29692     29693     29694
     29693     29695     29696     29697     29696     29698     29699     29700
     29699     29701     29702     29703     29702     29704     29705     29706
     29705     29707     29708     29709     29708     29710     29711     29712
     29711     29713     29714     29715     29714     29716     29717     29718
     29717     29719     29720     29721     29720     29722     29723     29724
     29723     29725     29726     29727     29726     29728     29729     29730
     29729     29731     29732     29733     29732     29734     29735     29736
     29735     29737     29738     29739     29738     29740     29741     29742
     29741     29743     29744     29745     29744     29746     29747     29748
     29747     29749     29750     29751     29750     29752     29753     29754
     29753     29755     29756     29757     29756     29758     29759     29760
     29759     29761     29762     29763     29762     29764     29765     29766
     29765     29767     29768     29769     29768     29770     29771     29772
     29771     29773     29774     29775     29774     29776     29777     29778
     29777     29779     29780     29781     29780     29782     29783     29784
     29783     29785     29786     29787     29786     29788     29789     29790
     29789     29791     29792     29793     29792     29794     29795     29796
     29795     29797     29798     29799     29798     29800     29801     29802
     29801     29803     29804     29805     29804     29806     29807     29808
     29807     29809     29810     29811     29810     29812     29813     29814
     29813     29815     29816     29817     29816     29818     29819     29820
     29819     29821     29822     29823     29822     29824     29825     29826
     29825     29827     29828     29829     29828     29830     29831     29832
     29831     29833     29834     29835     29834     29836     29837     29838
     29837     29839     29840     29841     29840     29842     29843     29844
     29843     29845     29846     29847     29846     29848     29849     29850
     29849     29851     29852     29853     29852     29854     29855     29856
     29855     29857     29858     29859     29858     29860     29861     29862
     29861     29863     29864     29865     29864     29866     29867     29868
     29867     29869     29870     29871     29870     29872     29873     29874
     29873     29875     29876     29877     29876     29878     29879     29880
     29879     29881     29882     29883     29882     29884     29885     29886
     29885     29887     29888     29889     29888     29890     29891     29892
     29891     29893     29894     29895     29894     29896     29897     29898
     29897     29899     29900     29901     29900     29902     29903     29904
     29903     29905     29906     29907     29906     29908     29909     29910
     29909     29911     29912     29913     29912     29914     29915     29916
     29915     29917     29918     29919     29918     29920     29921     29922
     29921     29923     29924     29925     29924     29926     29927     29928
     29927     29929     29930     29931     29930     29932     29933     29934
     29933     29935     29936     29937     29936     29938     29939     29940
     29939     29941     29942     29943     29942     29944     29945     29946
     29945     29947     29948     29949     29948     29950     29951     29952
     29951     29953     29954     29955     29954     29956     29957     29958
     29957     29959     29960     29961     29960     29962     29963     29964
     29963     29965     29966     29967     29966     29968     29969     29970
     29969     29971     29972     29973     29972     29974     29975     29976
     29975     29977     29978     29979     29978     29980     29981     29982
     29981     29983     29984     29985     29984     29986     29987     29988
     29987     29989     29990     29991     29990     29992     29993     29994
     29993     29995     29996     29997     29996     29998     29999     30000
     29999     30001     30002     30003     30002     30004     30005     30006
     30005     30007     30008     30009     30008     30010     30011     30012
     30011     30013     30014     30015     30014     30016     30017     30018
     30017     30019     30020     30021     30020     30022     30023     30024
     30023     30025     30026     30027     30026     30028     30029     30030
     30029     30031     30032     30033     30032     30034     30035     30036
     30035     30037     30038     30039     30038     30040     30041     30042
     30041     30043     30044     30045     30044     30046     30047     30048
     30047     30049     30050     30051     30050     30052     30053     30054
     30053     30055     30056     30057     30056     30058     30059     30060
     30059     30061     30062     30063     30062     30064     30065     30066
     30065     30067     30068     30069     30068     30070     30071     30072
     30071     30073     30074     30075     30074     30076     30077     30078
     30077     30079     30080     30081     30080     30082     30083     30084
     30083     30085     30086     30087     30086     30088     30089     30090
     30089     30091     30092     30093     30092     30094     30095     30096
     30095     30097     30098     30099     30098     30100     30101     30102
     30101     30103     30104     30105     30104     30106     30107     30108
     30107     30109     30110     30111     30110     30112     30113     30114
     30113     30115     30116     30117     30116     30118     30119     30120
     30119     30121     30122     30123     30122     30124     30125     30126
     30125     30127     30128     30129     30128     30130     30131     30132
     30131     30133     30134     30135     30134     30136     30137     30138
     30137     30139     30140     30141     30140     30142     30143     30144
     30143     30145     30146     30147     30146     30148     30149     30150
     30149     30151     30152     30153     30152     30154     30155     30156
     30155     30157     30158     30159     30158     30160     30161     30162
     30161     30163     30164     30165     30164     30166     30167     30168
     30167     30169     30170     30171     30170     30172     30173     30174
     30173     30175     30176     30177     30176     30178     30179     30180
     30179     30181     30182     30183     30182     30184     30185     30186
     30185     30187     30188     30189     30188     30190     30191     30192
     30191     30193     30194     30195     30194     30196     30197     30198
     30197     30199     30200     30201     30200     30202     30203     30204
     30203     30205     30206     30207     30206     30208     30209     30210
     30209     30211     30212     30213     30212     30214     30215     30216
     30215     30217     30218     30219     30218     30220     30221     30222
     30221     30223     30224     30225     30224     30226     30227     30228
     30227     30229     30230     30231     30230     30232     30233     30234
     30233     30235     30236     30237     30236     30238     30239     30240
     30239     30241     30242     30243     30242     30244     30245     30246
     30245     30247     30248     30249     30248     30250     30251     30252
     30251     30253     30254     30255     30254     30256     30257     30258
     30257     30259     30260     30261     30260     30262     30263     30264
     30263     30265     30266     30267     30266     30268     30269     30270
     30269     30271     30272     30273     30272     30274     30275     30276
     30275     30277     30278     30279     30278     30280     30281     30282
     30281     30283     30284     30285     30284     30286     30287     30288
     30287     30289     30290     30291     30290     30292     30293     30294
     30293     30295     30296     30297     30296     30298     30299     30300
     30299     30301     30302     30303     30302     30304     30305     30306
     30305     30307     30308     30309     30308     30310     30311     30312
     30311     30313     30314     30315     30314     30316     30317     30318
     30317     30319     30320     30321     30320     30322     30323     30324
     30323     30325     30326     30327     30326     30328     30329     30330
     30329     30331     30332     30333     30332     30334     30335     30336
     30335     30337     30338     30339     30338     30340     30341     30342
     30341     30343     30344     30345     30344     30346     30347     30348
     30347     30349     30350     30351     30350     30352     30353     30354
     30353     30355     30356     30357     30356     30358     30359     30360
     30359     30361     30362     30363     30362     30364     30365     30366
     30365     30367     30368     30369     30368     30370     30371     30372
     30371     30373     30374     30375     30374     30376     30377     30378
     30377     30379     30380     30381     30380     30382     30383     30384
     30383     30385     30386     30387     30386     30388     30389     30390
     30389     30391     30392     30393     30392     30394     30395     30396
     30395     30397     30398     30399     30398     30400     30401     30402
     30401     30403     30404     30405     30404     30406     30407     30408
     30407     30409     30410     30411     30410     30412     30413     30414
     30413     30415     30416     30417     30416     30418     30419     30420
     30419     30421     30422     30423     30422     30424     30425     30426
     30425     30427     30428     30429     30428     30430     30431     30432
     30431     30433     30434     30435     30434     30436     30437     30438
     30437     30439     30440     30441     30440     30442     30443     30444
     30443     30445     30446     30447     30446     30448     30449     30450
     30449     30451     30452     30453     30452     30454     30455     30456
     30455     30457     30458     30459     30458     30460     30461     30462
     30461     30463     30464     30465     30464     30466     30467     30468
     30467     30469     30470     30471     30470     30472     30473     30474
     30473     30475     30476     30477     30476     30478     30479     30480
     30479     30481     30482     30483     30482     30484     30485     30486
     30485     30487     30488     30489     30488     30490     30491     30492
     30491     30493     30494     30495     30494     30496     30497     30498
     30497     30499     30500     30501     30500     30502     30503     30504
     30503     30505     30506     30507     30506     30508     30509     30510
     30509     30511     30512     30513     30512     30514     30515     30516
     30515     30517     30518     30519     30518     30520     30521     30522
     30521     30523     30524     30525     30524     30526     30527     30528
     30527     30529     30530     30531     30530     30532     30533     30534
     30533     30535     30536     30537     30536     30538     30539     30540
     30539     30541     30542     30543     30542     30544     30545     30546
     30545     30547     30548     30549     30548     30550     30551     30552
     30551     30553     30554     30555     30554     30556     30557     30558
     30557     30559     30560     30561     30560     30562     30563     30564
     30563     30565     30566     30567     30566     30568     30569     30570
     30569     30571     30572     30573     30572     30574     30575     30576
     30575     30577     30578     30579     30578     30580     30581     30582
     30581     30583     30584     30585     30584     30586     30587     30588
     30587     30589     30590     30591     30590     30592     30593     30594
     30593     30595     30596     30597     30596     30598     30599     30600
     30599     30601     30602     30603     30602     30604     30605     30606
     30605     30607     30608     30609     30608     30610     30611     30612
     30611     30613     30614     30615     30614     30616     30617     30618
     30617     30619     30620     30621     30620     30622     30623     30624
     30623     30625     30626     30627     30626     30628     30629     30630
     30629     30631     30632     30633     30632     30634     30635     30636
     30635     30637     30638     30639     30638     30640     30641     30642
     30641     30643     30644     30645     30644     30646     30647     30648
     30647     30649     30650     30651     30650     30652     30653     30654
     30653     30655     30656     30657     30656     30658     30659     30660
     30659     30661     30662     30663     30662     30664     30665     30666
     30665     30667     30668     30669     30668     30670     30671     30672
     30671     30673     30674     30675     30674     30676     30677     30678
     30677     30679     30680     30681     30680     30682     30683     30684
     30683     30685     30686     30687     30686     30688     30689     30690
     30689     30691     30692     30693     30692     30694     30695     30696
     30695     30697     30698     30699     30698     30700     30701     30702
     30701     30703     30704     30705     30704     30706     30707     30708
     30707     30709     30710     30711     30710     30712     30713     30714
     30713     30715     30716     30717     30716     30718     30719     30720
     30719     30721     30722     30723     30722     30724     30725     30726
     30725     30727     30728     30729     30728     30730     30731     30732
     30731     30733     30734     30735     30734     30736     30737     30738
     30737     30739     30740     30741     30740     30742     30743     30744
     30743     30745     30746     30747     30746     30748     30749     30750
     30749     30751     30752     30753     30752     30754     30755     30756
     30755     30757     30758     30759     30758     30760     30761     30762
     30761     30763     30764     30765     30764     30766     30767     30768
     30767     30769     30770     30771     30770     30772     30773     30774
     30773     30775     30776     30777     30776     30778     30779     30780
     30779     30781     30782     30783     30782     30784     30785     30786
     30785     30787     30788     30789     30788     30790     30791     30792
     30791     30793     30794     30795     30794     30796     30797     30798
     30797     30799     30800     30801     30800     30802     30803     30804
     30803     30805     30806     30807     30806     30808     30809     30810
     30809     30811     30812     30813     30812     30814     30815     30816
     30815     30817     30818     30819     30818     30820     30821     30822
     30821     30823     30824     30825     30824     30826     30827     30828
     30827     30829     30830     30831     30830     30832     30833     30834
     30833     30835     30836     30837     30836     30838     30839     30840
     30839     30841     30842     30843     30842     30844     30845     30846
     30845     30847     30848     30849     30848     30850     30851     30852
     30851     30853     30854     30855     30854     30856     30857     30858
     30857     30859     30860     30861     30860     30862     30863     30864
     30863     30865     30866     30867     30866     30868     30869     30870
     30869     30871     30872     30873     30872     30874     30875     30876
     30875     30877     30878     30879     30878     30880     30881     30882
     30881     30883     30884     30885     30884     30886     30887     30888
     30887     30889     30890     30891     30890     30892     30893     30894
     30893     30895     30896     30897     30896     30898     30899     30900
     30899     30901     30902     30903     30902     30904     30905     30906
     30905     30907     30908     30909     30908     30910     30911     30912
     30911     30913     30914     30915     30914     30916     30917     30918
     30917     30919     30920     30921     30920     30922     30923     30924
     30923     30925     30926     30927     30926     30928     30929     30930
     30929     30931     30932     30933     30932     30934     30935     30936
     30935     30937     30938     30939     30938     30940     30941     30942
     30941     30943     30944     30945     30944     30946     30947     30948
     30947     30949     30950     30951     30950     30952     30953     30954
     30953     30955     30956     30957     30956     30958     30959     30960
     30959     30961     30962     30963     30962     30964     30965     30966
     30965     30967     30968     30969     30968     30970     30971     30972
     30971     30973     30974     30975     30974     30976     30977     30978
     30977     30979     30980     30981     30980     30982     30983     30984
     30983     30985     30986     30987     30986     30988     30989     30990
     30989     30991     30992     30993     30992     30994     30995     30996
     30995     30997     30998     30999     30998     31000     31001     31002
     31001     31003     31004     31005     31004     31006     31007     31008
     31007     31009     31010     31011     31010     31012     31013     31014
     31013     31015     31016     31017     31016     31018     31019     31020
     31019     31021     31022     31023     31022     31024     31025     31026
     31025     31027     31028     31029     31028     31030     31031     31032
     31031     31033     31034     31035     31034     31036     31037     31038
     31037     31039     31040     31041     31040     31042     31043     31044
     31043     31045     31046     31047     31046     31048     31049     31050
     31049     31051     31052     31053     31052     31054     31055     31056
     31055     31057     31058     31059     31058     31060     31061     31062
     31061     31063     31064     31065     31064     31066     31067     31068
     31067     31069     31070     31071     31070     31072     31073     31074
     31073     31075     31076     31077     31076     31078     31079     31080
     31079     31081     31082     31083     31082     31084     31085     31086
     31085     31087     31088     31089     31088     31090     31091     31092
     31091     31093     31094     31095     31094     31096     31097     31098
     31097     31099     31100     31101     31100     31102     31103     31104
     31103     31105     31106     31107     31106     31108     31109     31110
     31109     31111     31112     31113     31112     31114     31115     31116
     31115     31117     31118     31119     31118     31120     31121     31122
     31121     31123     31124     31125     31124     31126     31127     31128
     31127     31129     31130     31131     31130     31132     31133     31134
     31133     31135     31136     31137     31136     31138     31139     31140
     31139     31141     31142     31143     31142     31144     31145     31146
     31145     31147     31148     31149     31148     31150     31151     31152
     31151     31153     31154     31155     31154     31156     31157     31158
     31157     31159     31160     31161     31160     31162     31163     31164
     31163     31165     31166     31167     31166     31168     31169     31170
     31169     31171     31172     31173     31172     31174     31175     31176
     31175     31177     31178     31179     31178     31180     31181     31182
     31181     31183     31184     31185     31184     31186     31187     31188
     31187     31189     31190     31191     31190     31192     31193     31194
     31193     31195     31196     31197     31196     31198     31199     31200
     31199     31201     31202     31203     31202     31204     31205     31206
     31205     31207     31208     31209     31208     31210     31211     31212
     31211     31213     31214     31215     31214     31216     31217     31218
     31217     31219     31220     31221     31220     31222     31223     31224
     31223     31225     31226     31227     31226     31228     31229     31230
     31229     31231     31232     31233     31232     31234     31235     31236
     31235     31237     31238     31239     31238     31240     31241     31242
     31241     31243     31244     31245     31244     31246     31247     31248
     31247     31249     31250     31251     31250     31252     31253     31254
     31253     31255     31256     31257     31256     31258     31259     31260
     31259     31261     31262     31263     31262     31264     31265     31266
     31265     31267     31268     31269     31268     31270     31271     31272
     31271     31273     31274     31275     31274     31276     31277     31278
     31277     31279     31280     31281     31280     31282     31283     31284
     31283     31285     31286     31287     31286     31288     31289     31290
     31289     31291     31292     31293     31292     31294     31295     31296
     31295     31297     31298     31299     31298     31300     31301     31302
     31301     31303     31304     31305     31304     31306     31307     31308
     31307     31309     31310     31311     31310     31312     31313     31314
     31313     31315     31316     31317     31316     31318     31319     31320
     31319     31321     31322     31323     31322     31324     31325     31326
     31325     31327     31328     31329     31328     31330     31331     31332
     31331     31333     31334     31335     31334     31336     31337     31338
     31337     31339     31340     31341     31340     31342     31343     31344
     31343     31345     31346     31347     31346     31348     31349     31350
     31349     31351     31352     31353     31352     31354     31355     31356
     31355     31357     31358     31359     31358     31360     31361     31362
     31361     31363     31364     31365     31364     31366     31367     31368
     31367     31369     31370     31371     31370     31372     31373     31374
     31373     31375     31376     31377     31376     31378     31379     31380
     31379     31381     31382     31383     31382     31384     31385     31386
     31385     31387     31388     31389     31388     31390     31391     31392
     31391     31393     31394     31395     31394     31396     31397     31398
     31397     31399     31400     31401     31400     31402     31403     31404
     31403     31405     31406     31407     31406     31408     31409     31410
     31409     31411     31412     31413     31412     31414     31415     31416
     31415     31417     31418     31419     31418     31420     31421     31422
     31421     31423     31424     31425     31424     31426     31427     31428
     31427     31429     31430     31431     31430     31432     31433     31434
     31433     31435     31436     31437     31436     31438     31439     31440
     31439     31441     31442     31443     31442     31444     31445     31446
     31445     31447     31448     31449     31448     31450     31451     31452
     31451     31453     31454     31455     31454     31456     31457     31458
     31457     31459     31460     31461     31460     31462     31463     31464
     31463     31465     31466     31467     31466     31468     31469     31470
     31469     31471     31472     31473     31472     31474     31475     31476
     31475     31477     31478     31479     31478     31480     31481     31482
     31481     31483     31484     31485     31484     31486     31487     31488
     31487     31489     31490     31491     31490     31492     31493     31494
     31493     31495     31496     31497     31496     31498     31499     31500
     31499     31501     31502     31503     31502     31504     31505     31506
     31505     31507     31508     31509     31508     31510     31511     31512
     31511     31513     31514     31515     31514     31516     31517     31518
     31517     31519     31520     31521     31520     31522     31523     31524
     31523     31525     31526     31527     31526     31528     31529     31530
     31529     31531     31532     31533     31532     31534     31535     31536
     31535     31537     31538     31539     31538     31540     31541     31542
     31541     31543     31544     31545     31544     31546     31547     31548
     31547     31549     31550     31551     31550     31552     31553     31554
     31553     31555     31556     31557     31556     31558     31559     31560
     31559     31561     31562     31563     31562     31564     31565     31566
     31565     31567     31568     31569     31568     31570     31571     31572
     31571     31573     31574     31575     31574     31576     31577     31578
     31577     31579     31580     31581     31580     31582     31583     31584
     31583     31585     31586     31587     31586     31588     31589     31590
     31589     31591     31592     31593     31592     31594     31595     31596
     31595     31597     31598     31599     31598     31600     31601     31602
     31601     31603     31604     31605     31604     31606     31607     31608
     31607     31609     31610     31611     31610     31612     31613     31614
     31613     31615     31616     31617     31616     31618     31619     31620
     31619     31621     31622     31623     31622     31624     31625     31626
     31625     31627     31628     31629     31628     31630     31631     31632
     31631     31633     31634     31635     31634     31636     31637     31638
     31637     31639     31640     31641     31640     31642     31643     31644
     31643     31645     31646     31647     31646     31648     31649     31650
     31649     31651     31652     31653     31652     31654     31655     31656
     31655     31657     31658     31659     31658     31660     31661     31662
     31661     31663     31664     31665     31664     31666     31667     31668
     31667     31669     31670     31671     31670     31672     31673     31674
     31673     31675     31676     31677     31676     31678     31679     31680
     31679     31681     31682     31683     31682     31684     31685     31686
     31685     31687     31688     31689     31688     31690     31691     31692
     31691     31693     31694     31695     31694     31696     31697     31698
     31697     31699     31700     31701     31700     31702     31703     31704
     31703     31705     31706     31707     31706     31708     31709     31710
     31709     31711     31712     31713     31712     31714     31715     31716
     31715     31717     31718     31719     31718     31720     31721     31722
     31721     31723     31724     31725     31724     31726     31727     31728
     31727     31729     31730     31731     31730     31732     31733     31734
     31733     31735     31736     31737     31736     31738     31739     31740
     31739     31741     31742     31743     31742     31744     31745     31746
     31745     31747     31748     31749     31748     31750     31751     31752
     31751     31753     31754     31755     31754     31756     31757     31758
     31757     31759     31760     31761     31760     31762     31763     31764
     31763     31765     31766     31767     31766     31768     31769     31770
     31769     31771     31772     31773     31772     31774     31775     31776
     31775     31777     31778     31779     31778     31780     31781     31782
     31781     31783     31784     31785     31784     31786     31787     31788
     31787     31789     31790     31791     31790     31792     31793     31794
     31793     31795     31796     31797     31796     31798     31799     31800
     31799     31801     31802     31803     31802     31804     31805     31806
     31805     31807     31808     31809     31808     31810     31811     31812
     31811     31813     31814     31815     31814     31816     31817     31818
     31817     31819     31820     31821     31820     31822     31823     31824
     31823     31825     31826     31827     31826     31828     31829     31830
     31829     31831     31832     31833     31832     31834     31835     31836
     31835     31837     31838     31839     31838     31840     31841     31842
     31841     31843     31844     31845     31844     31846     31847     31848
     31847     31849     31850     31851     31850     31852     31853     31854
     31853     31855     31856     31857     31856     31858     31859     31860
     31859     31861     31862     31863     31862     31864     31865     31866
     31865     31867     31868     31869     31868     31870     31871     31872
     31871     31873     31874     31875     31874     31876     31877     31878
     31877     31879     31880     31881     31880     31882     31883     31884
     31883     31885     31886     31887     31886     31888     31889     31890
     31889     31891     31892     31893     31892     31894     31895     31896
     31895     31897     31898     31899     31898     31900     31901     31902
     31901     31903     31904     31905     31904     31906     31907     31908
     31907     31909     31910     31911     31910     31912     31913     31914
     31913     31915     31916     31917     31916     31918     31919     31920
     31919     31921     31922     31923     31922     31924     31925     31926
     31925     31927     31928     31929     31928     31930     31931     31932
     31931     31933     31934     31935     31934     31936     31937     31938
     31937     31939     31940     31941     31940     31942     31943     31944
     31943     31945     31946     31947     31946     31948     31949     31950
     31949     31951     31952     31953     31952     31954     31955     31956
     31955     31957     31958     31959     31958     31960     31961     31962
     31961     31963     31964     31965     31964     31966     31967     31968
     31967     31969     31970     31971     31970     31972     31973     31974
     31973     31975     31976     31977     31976     31978     31979     31980
     31979     31981     31982     31983     31982     31984     31985     31986
     31985     31987     31988     31989     31988     31990     31991     31992
     31991     31993     31994     31995     31994     31996     31997     31998
     31997     31999     32000     32001     32000     32002     32003     32004
     32003     32005     32006     32007     32006     32008     32009     32010
     32009     32011     32012     32013     32012     32014     32015     32016
     32015     32017     32018     32019     32018     32020     32021     32022
     32021     32023     32024     32025     32024     32026     32027     32028
     32027     32029     32030     32031     32030     32032     32033     32034
     32033     32035     32036     32037     32036     32038     32039     32040
     32039     32041     32042     32043     32042     32044     32045     32046
     32045     32047     32048     32049     32048     32050     32051     32052
     32051     32053     32054     32055     32054     32056     32057     32058
     32057     32059     32060     32061     32060     32062     32063     32064
     32063     32065     32066     32067     32066     32068     32069     32070
     32069     32071     32072     32073     32072     32074     32075     32076
     32075     32077     32078     32079     32078     32080     32081     32082
     32081     32083     32084     32085     32084     32086     32087     32088
     32087     32089     32090     32091     32090     32092     32093     32094
     32093     32095     32096     32097     32096     32098     32099     32100
     32099     32101     32102     32103     32102     32104     32105     32106
     32105     32107     32108     32109     32108     32110     32111     32112
     32111     32113     32114     32115     32114     32116     32117     32118
     32117     32119     32120     32121     32120     32122     32123     32124
     32123     32125     32126     32127     32126     32128     32129     32130
     32129     32131     32132     32133     32132     32134     32135     32136
     32135     32137     32138     32139     32138     32140     32141     32142
     32141     32143     32144     32145     32144     32146     32147     32148
     32147     32149     32150     32151     32150     32152     32153     32154
     32153     32155     32156     32157     32156     32158     32159     32160
     32159     32161     32162     32163     32162     32164     32165     32166
     32165     32167     32168     32169     32168     32170     32171     32172
     32171     32173     32174     32175     32174     32176     32177     32178
     32177     32179     32180     32181     32180     32182     32183     32184
     32183     32185     32186     32187     32186     32188     32189     32190
     32189     32191     32192     32193     32192     32194     32195     32196
     32195     32197     32198     32199     32198     32200     32201     32202
     32201     32203     32204     32205     32204     32206     32207     32208
     32207     32209     32210     32211     32210     32212     32213     32214
     32213     32215     32216     32217     32216     32218     32219     32220
     32219     32221     32222     32223     32222     32224     32225     32226
     32225     32227     32228     32229     32228     32230     32231     32232
     32231     32233     32234     32235     32234     32236     32237     32238
     32237     32239     32240     32241     32240     32242     32243     32244
     32243     32245     32246     32247     32246     32248     32249     32250
     32249     32251     32252     32253     32252     32254     32255     32256
     32255     32257     32258     32259     32258     32260     32261     32262
     32261     32263     32264     32265     32264     32266     32267     32268
     32267     32269     32270     32271     32270     32272     32273     32274
     32273     32275     32276     32277     32276     32278     32279     32280
     32279     32281     32282     32283     32282     32284     32285     32286
     32285     32287     32288     32289     32288     32290     32291     32292
     32291     32293     32294     32295     32294     32296     32297     32298
     32297     32299     32300     32301     32300     32302     32303     32304
     32303     32305     32306     32307     32306     32308     32309     32310
     32309     32311     32312     32313     32312     32314     32315     32316
     32315     32317     32318     32319     32318     32320     32321     32322
     32321     32323     32324     32325     32324     32326     32327     32328
     32327     32329     32330     32331     32330     32332     32333     32334
     32333     32335     32336     32337     32336     32338     32339     32340
     32339     32341     32342     32343     32342     32344     32345     32346
     32345     32347     32348     32349     32348     32350     32351     32352
     32351     32353     32354     32355     32354     32356     32357     32358
     32357     32359     32360     32361     32360     32362     32363     32364
     32363     32365     32366     32367     32366     32368     32369     32370
     32369     32371     32372     32373     32372     32374     32375     32376
     32375     32377     32378     32379     32378     32380     32381     32382
     32381     32383     32384     32385     32384     32386     32387     32388
     32387     32389     32390     32391     32390     32392     32393     32394
     32393     32395     32396     32397     32396     32398     32399     32400
     32399     32401     32402     32403     32402     32404     32405     32406
     32405     32407     32408     32409     32408     32410     32411     32412
     32411     32413     32414     32415     32414     32416     32417     32418
     32417     32419     32420     32421     32420     32422     32423     32424
     32423     32425     32426     32427     32426     32428     32429     32430
     32429     32431     32432     32433     32432     32434     32435     32436
     32435     32437     32438     32439     32438     32440     32441     32442
     32441     32443     32444     32445     32444     32446     32447     32448
     32447     32449     32450     32451     32450     32452     32453     32454
     32453     32455     32456     32457     32456     32458     32459     32460
     32459     32461     32462     32463     32462     32464     32465     32466
     32465     32467     32468     32469     32468     32470     32471     32472
     32471     32473     32474     32475     32474     32476     32477     32478
     32477     32479     32480     32481     32480     32482     32483     32484
     32483     32485     32486     32487     32486     32488     32489     32490
     32489     32491     32492     32493     32492     32494     32495     32496
     32495     32497     32498     32499     32498     32500     32501     32502
     32501     32503     32504     32505     32504     32506     32507     32508
     32507     32509     32510     32511     32510     32512     32513     32514
     32513     32515     32516     32517     32516     32518     32519     32520
     32519     32521     32522     32523     32522     32524     32525     32526
     32525     32527     32528     32529     32528     32530     32531     32532
     32531     32533     32534     32535     32534     32536     32537     32538
     32537     32539     32540     32541     32540     32542     32543     32544
     32543     32545     32546     32547     32546     32548     32549     32550
     32549     32551     32552     32553     32552     32554     32555     32556
     32555     32557     32558     32559     32558     32560     32561     32562
     32561     32563     32564     32565     32564     32566     32567     32568
     32567     32569     32570     32571     32570     32572     32573     32574
     32573     32575     32576     32577     32576     32578     32579     32580
     32579     32581     32582     32583     32582     32584     32585     32586
     32585     32587     32588     32589     32588     32590     32591     32592
     32591     32593     32594     32595     32594     32596     32597     32598
     32597     32599     32600     32601     32600     32602     32603     32604
     32603     32605     32606     32607     32606     32608     32609     32610
     32609     32611     32612     32613     32612     32614     32615     32616
     32615     32617     32618     32619     32618     32620     32621     32622
     32621     32623     32624     32625     32624     32626     32627     32628
     32627     32629     32630     32631     32630     32632     32633     32634
     32633     32635     32636     32637     32636     32638     32639     32640
     32639     32641     32642     32643     32642     32644     32645     32646
     32645     32647     32648     32649     32648     32650     32651     32652
     32651     32653     32654     32655     32654     32656     32657     32658
     32657     32659     32660     32661     32660     32662     32663     32664
     32663     32665     32666     32667     32666     32668     32669     32670
     32669     32671     32672     32673     32672     32674     32675     32676
     32675     32677     32678     32679     32678     32680     32681     32682
     32681     32683     32684     32685     32684     32686     32687     32688
     32687     32689     32690     32691     32690     32692     32693     32694
     32693     32695     32696     32697     32696     32698     32699     32700
     32699     32701     32702     32703     32702     32704     32705     32706
     32705     32707     32708     32709     32708     32710     32711     32712
     32711     32713     32714     32715     32714     32716     32717     32718
     32717     32719     32720     32721     32720     32722     32723     32724
     32723     32725     32726     32727     32726     32728     32729     32730
     32729     32731     32732     32733     32732     32734     32735     32736
     32735     32737     32738     32739     32738     32740     32741     32742
     32741     32743     32744     32745     32744     32746     32747     32748
     32747     32749     32750     32751     32750     32752     32753     32754
     32753     32755     32756     32757     32756     32758     32759     32760
     32759     32761     32762     32763     32762     32764     32765     32766
     32765     32767     32768     32769     32768     32770     32771     32772
     32771     32773     32774     32775     32774     32776     32777     32778
     32777     32779     32780     32781     32780     32782     32783     32784
     32783     32785     32786     32787     32786     32788     32789     32790
     32789     32791     32792     32793     32792     32794     32795     32796
     32795     32797     32798     32799     32798     32800     32801     32802
     32801     32803     32804     32805     32804     32806     32807     32808
     32807     32809     32810     32811     32810     32812     32813     32814
     32813     32815     32816     32817     32816     32818     32819     32820
     32819     32821     32822     32823     32822     32824     32825     32826
     32825     32827     32828     32829     32828     32830     32831     32832
     32831     32833     32834     32835     32834     32836     32837     32838
     32837     32839     32840     32841     32840     32842     32843     32844
     32843     32845     32846     32847     32846     32848     32849     32850
     32849     32851     32852     32853     32852     32854     32855     32856
     32855     32857     32858     32859     32858     32860     32861     32862
     32861     32863     32864     32865     32864     32866     32867     32868
     32867     32869     32870     32871     32870     32872     32873     32874
     32873     32875     32876     32877     32876     32878     32879     32880
     32879     32881     32882     32883     32882     32884     32885     32886
     32885     32887     32888     32889     32888     32890     32891     32892
     32891     32893     32894     32895     32894     32896     32897     32898
     32897     32899     32900     32901     32900     32902     32903     32904
     32903     32905     32906     32907     32906     32908     32909     32910
     32909     32911     32912     32913     32912     32914     32915     32916
     32915     32917     32918     32919     32918     32920     32921     32922
     32921     32923     32924     32925     32924     32926     32927     32928
     32927     32929     32930     32931     32930     32932     32933     32934
     32933     32935     32936     32937     32936     32938     32939     32940
     32939     32941     32942     32943     32942     32944     32945     32946
     32945     32947     32948     32949     32948     32950     32951     32952
     32951     32953     32954     32955     32954     32956     32957     32958
     32957     32959     32960     32961     32960     32962     32963     32964
     32963     32965     32966     32967     32966     32968     32969     32970
     32969     32971     32972     32973     32972     32974     32975     32976
     32975     32977     32978     32979     32978     32980     32981     32982
     32981     32983     32984     32985     32984     32986     32987     32988
     32987     32989     32990     32991     32990     32992     32993     32994
     32993     32995     32996     32997     32996     32998     32999     33000
     32999     33001     33002     33003     33002     33004     33005     33006
     33005     33007     33008     33009     33008     33010     33011     33012
     33011     33013     33014     33015     33014     33016     33017     33018
     33017     33019     33020     33021     33020     33022     33023     33024
     33023     33025     33026     33027     33026     33028     33029     33030
     33029     33031     33032     33033     33032     33034     33035     33036
     33035     33037     33038     33039     33038     33040     33041     33042
     33041     33043     33044     33045     33044     33046     33047     33048
     33047     33049     33050     33051     33050     33052     33053     33054
     33053     33055     33056     33057     33056     33058     33059     33060
     33059     33061     33062     33063     33062     33064     33065     33066
     33065     33067     33068     33069     33068     33070     33071     33072
     33071     33073     33074     33075     33074     33076     33077     33078
     33077     33079     33080     33081     33080     33082     33083     33084
     33083     33085     33086     33087     33086     33088     33089     33090
     33089     33091     33092     33093     33092     33094     33095     33096
     33095     33097     33098     33099     33098     33100     33101     33102
     33101     33103     33104     33105     33104     33106     33107     33108
     33107     33109     33110     33111     33110     33112     33113     33114
     33113     33115     33116     33117     33116     33118     33119     33120
     33119     33121     33122     33123     33122     33124     33125     33126
     33125     33127     33128     33129     33128     33130     33131     33132
     33131     33133     33134     33135     33134     33136     33137     33138
     33137     33139     33140     33141     33140     33142     33143     33144
     33143     33145     33146     33147     33146     33148     33149     33150
     33149     33151     33152     33153     33152     33154     33155     33156
     33155     33157     33158     33159     33158     33160     33161     33162
     33161     33163     33164     33165     33164     33166     33167     33168
     33167     33169     33170     33171     33170     33172     33173     33174
     33173     33175     33176     33177     33176     33178     33179     33180
     33179     33181     33182     33183     33182     33184     33185     33186
     33185     33187     33188     33189     33188     33190     33191     33192
     33191     33193     33194     33195     33194     33196     33197     33198
     33197     33199     33200     33201     33200     33202     33203     33204
     33203     33205     33206     33207     33206     33208     33209     33210
     33209     33211     33212     33213     33212     33214     33215     33216
     33215     33217     33218     33219     33218     33220     33221     33222
     33221     33223     33224     33225     33224     33226     33227     33228
     33227     33229     33230     33231     33230     33232     33233     33234
     33233     33235     33236     33237     33236     33238     33239     33240
     33239     33241     33242     33243     33242     33244     33245     33246
     33245     33247     33248     33249     33248     33250     33251     33252
     33251     33253     33254     33255     33254     33256     33257     33258
     33257     33259     33260     33261     33260     33262     33263     33264
     33263     33265     33266     33267     33266     33268     33269     33270
     33269     33271     33272     33273     33272     33274     33275     33276
     33275     33277     33278     33279     33278     33280     33281     33282
     33281     33283     33284     33285     33284     33286     33287     33288
     33287     33289     33290     33291     33290     33292     33293     33294
     33293     33295     33296     33297     33296     33298     33299     33300
     33299     33301     33302     33303     33302     33304     33305     33306
     33305     33307     33308     33309     33308     33310     33311     33312
     33311     33313     33314     33315     33314     33316     33317     33318
     33317     33319     33320     33321     33320     33322     33323     33324
     33323     33325     33326     33327     33326     33328     33329     33330
     33329     33331     33332     33333     33332     33334     33335     33336
     33335     33337     33338     33339     33338     33340     33341     33342
     33341     33343     33344     33345     33344     33346     33347     33348
     33347     33349     33350     33351     33350     33352     33353     33354
     33353     33355     33356     33357     33356     33358     33359     33360
     33359     33361     33362     33363     33362     33364     33365     33366
     33365     33367     33368     33369     33368     33370     33371     33372
     33371     33373     33374     33375     33374     33376     33377     33378
     33377     33379     33380     33381     33380     33382     33383     33384
     33383     33385     33386     33387     33386     33388     33389     33390
     33389     33391     33392     33393     33392     33394     33395     33396
     33395     33397     33398     33399     33398     33400     33401     33402
     33401     33403     33404     33405     33404     33406     33407     33408
     33407     33409     33410     33411     33410     33412     33413     33414
     33413     33415     33416     33417     33416     33418     33419     33420
     33419     33421     33422     33423     33422     33424     33425     33426
     33425     33427     33428     33429     33428     33430     33431     33432
     33431     33433     33434     33435     33434     33436     33437     33438
     33437     33439     33440     33441     33440     33442     33443     33444
     33443     33445     33446     33447     33446     33448     33449     33450
     33449     33451     33452     33453     33452     33454     33455     33456
     33455     33457     33458     33459     33458     33460     33461     33462
     33461     33463     33464     33465     33464     33466     33467     33468
     33467     33469     33470     33471     33470     33472     33473     33474
     33473     33475     33476     33477     33476     33478     33479     33480
     33479     33481     33482     33483     33482     33484     33485     33486
     33485     33487     33488     33489     33488     33490     33491     33492
     33491     33493     33494     33495     33494     33496     33497     33498
     33497     33499     33500     33501     33500     33502     33503     33504
     33503     33505     33506     33507     33506     33508     33509     33510
     33509     33511     33512     33513     33512     33514     33515     33516
     33515     33517     33518     33519     33518     33520     33521     33522
     33521     33523     33524     33525     33524     33526     33527     33528
     33527     33529     33530     33531     33530     33532     33533     33534
     33533     33535     33536     33537     33536     33538     33539     33540
     33539     33541     33542     33543     33542     33544     33545     33546
     33545     33547     33548     33549     33548     33550     33551     33552
     33551     33553     33554     33555     33554     33556     33557     33558
     33557     33559     33560     33561     33560     33562     33563     33564
     33563     33565     33566     33567     33566     33568     33569     33570
     33569     33571     33572     33573     33572     33574     33575     33576
     33575     33577     33578     33579     33578     33580     33581     33582
     33581     33583     33584     33585     33584     33586     33587     33588
     33587     33589     33590     33591     33590     33592     33593     33594
     33593     33595     33596     33597     33596     33598     33599     33600
     33599     33601     33602     33603     33602     33604     33605     33606
     33605     33607     33608     33609     33608     33610     33611     33612
     33611     33613     33614     33615     33614     33616     33617     33618
     33617     33619     33620     33621     33620     33622     33623     33624
     33623     33625     33626     33627     33626     33628     33629     33630
     33629     33631     33632     33633     33632     33634     33635     33636
     33635     33637     33638     33639     33638     33640     33641     33642
     33641     33643     33644     33645     33644     33646     33647     33648
     33647     33649     33650     33651     33650     33652     33653     33654
     33653     33655     33656     33657     33656     33658     33659     33660
     33659     33661     33662     33663     33662     33664     33665     33666
     33665     33667     33668     33669     33668     33670     33671     33672
     33671     33673     33674     33675     33674     33676     33677     33678
     33677     33679     33680     33681     33680     33682     33683     33684
     33683     33685     33686     33687     33686     33688     33689     33690
     33689     33691     33692     33693     33692     33694     33695     33696
     33695     33697     33698     33699     33698     33700     33701     33702
     33701     33703     33704     33705     33704     33706     33707     33708
     33707     33709     33710     33711     33710     33712     33713     33714
     33713     33715     33716     33717     33716     33718     33719     33720
     33719     33721     33722     33723     33722     33724     33725     33726
     33725     33727     33728     33729     33728     33730     33731     33732
     33731     33733     33734     33735     33734     33736     33737     33738
     33737     33739     33740     33741     33740     33742     33743     33744
     33743     33745     33746     33747     33746     33748     33749     33750
     33749     33751     33752     33753     33752     33754     33755     33756
     33755     33757     33758     33759     33758     33760     33761     33762
     33761     33763     33764     33765     33764     33766     33767     33768
     33767     33769     33770     33771     33770     33772     33773     33774
     33773     33775     33776     33777     33776     33778     33779     33780
     33779     33781     33782     33783     33782     33784     33785     33786
     33785     33787     33788     33789     33788     33790     33791     33792
     33791     33793     33794     33795     33794     33796     33797     33798
     33797     33799     33800     33801     33800     33802     33803     33804
     33803     33805     33806     33807     33806     33808     33809     33810
     33809     33811     33812     33813     33812     33814     33815     33816
     33815     33817     33818     33819     33818     33820     33821     33822
     33821     33823     33824     33825     33824     33826     33827     33828
     33827     33829     33830     33831     33830     33832     33833     33834
     33833     33835     33836     33837     33836     33838     33839     33840
     33839     33841     33842     33843     33842     33844     33845     33846
     33845     33847     33848     33849     33848     33850     33851     33852
     33851     33853     33854     33855     33854     33856     33857     33858
     33857     33859     33860     33861     33860     33862     33863     33864
     33863     33865     33866     33867     33866     33868     33869     33870
     33869     33871     33872     33873     33872     33874     33875     33876
     33875     33877     33878     33879     33878     33880     33881     33882
     33881     33883     33884     33885     33884     33886     33887     33888
     33887     33889     33890     33891     33890     33892     33893     33894
     33893     33895     33896     33897     33896     33898     33899     33900
     33899     33901     33902     33903     33902     33904     33905     33906
     33905     33907     33908     33909     33908     33910     33911     33912
     33911     33913     33914     33915     33914     33916     33917     33918
     33917     33919     33920     33921     33920     33922     33923     33924
     33923     33925     33926     33927     33926     33928     33929     33930
     33929     33931     33932     33933     33932     33934     33935     33936
     33935     33937     33938     33939     33938     33940     33941     33942
     33941     33943     33944     33945     33944     33946     33947     33948
     33947     33949     33950     33951     33950     33952     33953     33954
     33953     33955     33956     33957     33956     33958     33959     33960
     33959     33961     33962     33963     33962     33964     33965     33966
     33965     33967     33968     33969     33968     33970     33971     33972
     33971     33973     33974     33975     33974     33976     33977     33978
     33977     33979     33980     33981     33980     33982     33983     33984
     33983     33985     33986     33987     33986     33988     33989     33990
     33989     33991     33992     33993     33992     33994     33995     33996
     33995     33997     33998     33999     33998     34000     34001     34002
     34001     34003     34004     34005     34004     34006     34007     34008
     34007     34009     34010     34011     34010     34012     34013     34014
     34013     34015     34016     34017     34016     34018     34019     34020
     34019     34021     34022     34023     34022     34024     34025     34026
     34025     34027     34028     34029     34028     34030     34031     34032
     34031     34033     34034     34035     34034     34036     34037     34038
     34037     34039     34040     34041     34040     34042     34043     34044
     34043     34045     34046     34047     34046     34048     34049     34050
     34049     34051     34052     34053     34052     34054     34055     34056
     34055     34057     34058     34059     34058     34060     34061     34062
     34061     34063     34064     34065     34064     34066     34067     34068
     34067     34069     34070     34071     34070     34072     34073     34074
     34073     34075     34076     34077     34076     34078     34079     34080
     34079     34081     34082     34083     34082     34084     34085     34086
     34085     34087     34088     34089     34088     34090     34091     34092
     34091     34093     34094     34095     34094     34096     34097     34098
     34097     34099     34100     34101     34100     34102     34103     34104
     34103     34105     34106     34107     34106     34108     34109     34110
     34109     34111     34112     34113     34112     34114     34115     34116
     34115     34117     34118     34119     34118     34120     34121     34122
     34121     34123     34124     34125     34124     34126     34127     34128
     34127     34129     34130     34131     34130     34132     34133     34134
     34133     34135     34136     34137     34136     34138     34139     34140
     34139     34141     34142     34143     34142     34144     34145     34146
     34145     34147     34148     34149     34148     34150     34151     34152
     34151     34153     34154     34155     34154     34156     34157     34158
     34157     34159     34160     34161     34160     34162     34163     34164
     34163     34165     34166     34167     34166     34168     34169     34170
     34169     34171     34172     34173     34172     34174     34175     34176
     34175     34177     34178     34179     34178     34180     34181     34182
     34181     34183     34184     34185     34184     34186     34187     34188
     34187     34189     34190     34191     34190     34192     34193     34194
     34193     34195     34196     34197     34196     34198     34199     34200
     34199     34201     34202     34203     34202     34204     34205     34206
     34205     34207     34208     34209     34208     34210     34211     34212
     34211     34213     34214     34215     34214     34216     34217     34218
     34217     34219     34220     34221     34220     34222     34223     34224
     34223     34225     34226     34227     34226     34228     34229     34230
     34229     34231     34232     34233     34232     34234     34235     34236
     34235     34237     34238     34239     34238     34240     34241     34242
     34241     34243     34244     34245     34244     34246     34247     34248
     34247     34249     34250     34251     34250     34252     34253     34254
     34253     34255     34256     34257     34256     34258     34259     34260
     34259     34261     34262     34263     34262     34264     34265     34266
     34265     34267     34268     34269     34268     34270     34271     34272
     34271     34273     34274     34275     34274     34276     34277     34278
     34277     34279     34280     34281     34280     34282     34283     34284
     34283     34285     34286     34287     34286     34288     34289     34290
     34289     34291     34292     34293     34292     34294     34295     34296
     34295     34297     34298     34299     34298     34300     34301     34302
     34301     34303     34304     34305     34304     34306     34307     34308
     34307     34309     34310     34311     34310     34312     34313     34314
     34313     34315     34316     34317     34316     34318     34319     34320
     34319     34321     34322     34323     34322     34324     34325     34326
     34325     34327     34328     34329     34328     34330     34331     34332
     34331     34333     34334     34335     34334     34336     34337     34338
     34337     34339     34340     34341     34340     34342     34343     34344
     34343     34345     34346     34347     34346     34348     34349     34350
     34349     34351     34352     34353     34352     34354     34355     34356
     34355     34357     34358     34359     34358     34360     34361     34362
     34361     34363     34364     34365     34364     34366     34367     34368
     34367     34369     34370     34371     34370     34372     34373     34374
     34373     34375     34376     34377     34376     34378     34379     34380
     34379     34381     34382     34383     34382     34384     34385     34386
     34385     34387     34388     34389     34388     34390     34391     34392
     34391     34393     34394     34395     34394     34396     34397     34398
     34397     34399     34400     34401     34400     34402     34403     34404
     34403     34405     34406     34407     34406     34408     34409     34410
     34409     34411     34412     34413     34412     34414     34415     34416
     34415     34417     34418     34419     34418     34420     34421     34422
     34421     34423     34424     34425     34424     34426     34427     34428
     34427     34429     34430     34431     34430     34432     34433     34434
     34433     34435     34436     34437     34436     34438     34439     34440
     34439     34441     34442     34443     34442     34444     34445     34446
     34445     34447     34448     34449     34448     34450     34451     34452
     34451     34453     34454     34455     34454     34456     34457     34458
     34457     34459     34460     34461     34460     34462     34463     34464
     34463     34465     34466     34467     34466     34468     34469     34470
     34469     34471     34472     34473     34472     34474     34475     34476
     34475     34477     34478     34479     34478     34480     34481     34482
     34481     34483     34484     34485     34484     34486     34487     34488
     34487     34489     34490     34491     34490     34492     34493     34494
     34493     34495     34496     34497     34496     34498     34499     34500
     34499     34501     34502     34503     34502     34504     34505     34506
     34505     34507     34508     34509     34508     34510     34511     34512
     34511     34513     34514     34515     34514     34516     34517     34518
     34517     34519     34520     34521     34520     34522     34523     34524
     34523     34525     34526     34527     34526     34528     34529     34530
     34529     34531     34532     34533     34532     34534     34535     34536
     34535     34537     34538     34539     34538     34540     34541     34542
     34541     34543     34544     34545     34544     34546     34547     34548
     34547     34549     34550     34551     34550     34552     34553     34554
     34553     34555     34556     34557     34556     34558     34559     34560
     34559     34561     34562     34563     34562     34564     34565     34566
     34565     34567     34568     34569     34568     34570     34571     34572
     34571     34573     34574     34575     34574     34576     34577     34578
     34577     34579     34580     34581     34580     34582     34583     34584
     34583     34585     34586     34587     34586     34588     34589     34590
     34589     34591     34592     34593     34592     34594     34595     34596
     34595     34597     34598     34599     34598     34600     34601     34602
     34601     34603     34604     34605     34604     34606     34607     34608
     34607     34609     34610     34611     34610     34612     34613     34614
     34613     34615     34616     34617     34616     34618     34619     34620
     34619     34621     34622     34623     34622     34624     34625     34626
     34625     34627     34628     34629     34628     34630     34631     34632
     34631     34633     34634     34635     34634     34636     34637     34638
     34637     34639     34640     34641     34640     34642     34643     34644
     34643     34645     34646     34647     34646     34648     34649     34650
     34649     34651     34652     34653     34652     34654     34655     34656
     34655     34657     34658     34659     34658     34660     34661     34662
     34661     34663     34664     34665     34664     34666     34667     34668
     34667     34669     34670     34671     34670     34672     34673     34674
     34673     34675     34676     34677     34676     34678     34679     34680
     34679     34681     34682     34683     34682     34684     34685     34686
     34685     34687     34688     34689     34688     34690     34691     34692
     34691     34693     34694     34695     34694     34696     34697     34698
     34697     34699     34700     34701     34700     34702     34703     34704
     34703     34705     34706     34707     34706     34708     34709     34710
     34709     34711     34712     34713     34712     34714     34715     34716
     34715     34717     34718     34719     34718     34720     34721     34722
     34721     34723     34724     34725     34724     34726     34727     34728
     34727     34729     34730     34731     34730     34732     34733     34734
     34733     34735     34736     34737     34736     34738     34739     34740
     34739     34741     34742     34743     34742     34744     34745     34746
     34745     34747     34748     34749     34748     34750     34751     34752
     34751     34753     34754     34755     34754     34756     34757     34758
     34757     34759     34760     34761     34760     34762     34763     34764
     34763     34765     34766     34767     34766     34768     34769     34770
     34769     34771     34772     34773     34772     34774     34775     34776
     34775     34777     34778     34779     34778     34780     34781     34782
     34781     34783     34784     34785     34784     34786     34787     34788
     34787     34789     34790     34791     34790     34792     34793     34794
     34793     34795     34796     34797     34796     34798     34799     34800
     34799     34801     34802     34803     34802     34804     34805     34806
     34805     34807     34808     34809     34808     34810     34811     34812
     34811     34813     34814     34815     34814     34816     34817     34818
     34817     34819     34820     34821     34820     34822     34823     34824
     34823     34825     34826     34827     34826     34828     34829     34830
     34829     34831     34832     34833     34832     34834     34835     34836
     34835     34837     34838     34839     34838     34840     34841     34842
     34841     34843     34844     34845     34844     34846     34847     34848
     34847     34849     34850     34851     34850     34852     34853     34854
     34853     34855     34856     34857     34856     34858     34859     34860
     34859     34861     34862     34863     34862     34864     34865     34866
     34865     34867     34868     34869     34868     34870     34871     34872
     34871     34873     34874     34875     34874     34876     34877     34878
     34877     34879     34880     34881     34880     34882     34883     34884
     34883     34885     34886     34887     34886     34888     34889     34890
     34889     34891     34892     34893     34892     34894     34895     34896
     34895     34897     34898     34899     34898     34900     34901     34902
     34901     34903     34904     34905     34904     34906     34907     34908
     34907     34909     34910     34911     34910     34912     34913     34914
     34913     34915     34916     34917     34916     34918     34919     34920
     34919     34921     34922     34923     34922     34924     34925     34926
     34925     34927     34928     34929     34928     34930     34931     34932
     34931     34933     34934     34935     34934     34936     34937     34938
     34937     34939     34940     34941     34940     34942     34943     34944
     34943     34945     34946     34947     34946     34948     34949     34950
     34949     34951     34952     34953     34952     34954     34955     34956
     34955     34957     34958     34959     34958     34960     34961     34962
     34961     34963     34964     34965     34964     34966     34967     34968
     34967     34969     34970     34971     34970     34972     34973     34974
     34973     34975     34976     34977     34976     34978     34979     34980
     34979     34981     34982     34983     34982     34984     34985     34986
     34985     34987     34988     34989     34988     34990     34991     34992
     34991     34993     34994     34995     34994     34996     34997     34998
     34997     34999     35000     35001     35000     35002     35003     35004
     35003     35005     35006     35007     35006     35008     35009     35010
     35009     35011     35012     35013     35012     35014     35015     35016
     35015     35017     35018     35019     35018     35020     35021     35022
     35021     35023     35024     35025     35024     35026     35027     35028
     35027     35029     35030     35031     35030     35032     35033     35034
     35033     35035     35036     35037     35036     35038     35039     35040
     35039     35041     35042     35043     35042     35044     35045     35046
     35045     35047     35048     35049     35048     35050     35051     35052
     35051     35053     35054     35055     35054     35056     35057     35058
     35057     35059     35060     35061     35060     35062     35063     35064
     35063     35065     35066     35067     35066     35068     35069     35070
     35069     35071     35072     35073     35072     35074     35075     35076
     35075     35077     35078     35079     35078     35080     35081     35082
     35081     35083     35084     35085     35084     35086     35087     35088
     35087     35089     35090     35091     35090     35092     35093     35094
     35093     35095     35096     35097     35096     35098     35099     35100
     35099     35101     35102     35103     35102     35104     35105     35106
     35105     35107     35108     35109     35108     35110     35111     35112
     35111     35113     35114     35115     35114     35116     35117     35118
     35117     35119     35120     35121     35120     35122     35123     35124
     35123     35125     35126     35127     35126     35128     35129     35130
     35129     35131     35132     35133     35132     35134     35135     35136
     35135     35137     35138     35139     35138     35140     35141     35142
     35141     35143     35144     35145     35144     35146     35147     35148
     35147     35149     35150     35151     35150     35152     35153     35154
     35153     35155     35156     35157     35156     35158     35159     35160
     35159     35161     35162     35163     35162     35164     35165     35166
     35165     35167     35168     35169     35168     35170     35171     35172
     35171     35173     35174     35175     35174     35176     35177     35178
     35177     35179     35180     35181     35180     35182     35183     35184
     35183     35185     35186     35187     35186     35188     35189     35190
     35189     35191     35192     35193     35192     35194     35195     35196
     35195     35197     35198     35199     35198     35200

      5965 !NACC: acceptors
        11        10        16        15        25        24        30        29
        54        53        68        67        77        76        82        81
        96        95        97        95     17336     17335     17339     17335
     17342     17335     17345     17335     17348     17335     17351     17335
     17354     17335     17357     17335     17360     17335     17363     17335
     17366     17335     17369     17335     17372     17335     17375     17335
     17378     17335     17381     17335     17384     17335     17387     17335
     17390     17335     17393     17335     17396     17335     17399     17335
     17402     17335     17405     17335     17408     17335     17411     17335
     17414     17335     17417     17335     17420     17335     17423     17335
     17426     17335     17429     17335     17432     17335     17435     17335
     17438     17335     17441     17335     17444     17335     17447     17335
     17450     17335     17453     17335     17456     17335     17459     17335
     17462     17335     17465     17335     17468     17335     17471     17335
     17474     17335     17477     17335     17480     17335     17483     17335
     17486     17335     17489     17335     17492     17335     17495     17335
     17498     17335     17501     17335     17504     17335     17507     17335
     17510     17335     17513     17335     17516     17335     17519     17335
     17522     17335     17525     17335     17528     17335     17531     17335
     17534     17335     17537     17335     17540     17335     17543     17335
     17546     17335     17549     17335     17552     17335     17555     17335
     17558     17335     17561     17335     17564     17335     17567     17335
     17570     17335     17573     17335     17576     17335     17579     17335
     17582     17335     17585     17335     17588     17335     17591     17335
     17594     17335     17597     17335     17600     17335     17603     17335
     17606     17335     17609     17335     17612     17335     17615     17335
     17618     17335     17621     17335     17624     17335     17627     17335
     17630     17335     17633     17335     17636     17335     17639     17335
     17642     17335     17645     17335     17648     17335     17651     17335
     17654     17335     17657     17335     17660     17335     17663     17335
     17666     17335     17669     17335     17672     17335     17675     17335
     17678     17335     17681     17335     17684     17335     17687     17335
     17690     17335     17693     17335     17696     17335     17699     17335
     17702     17335     17705     17335     17708     17335     17711     17335
     17714     17335     17717     17335     17720     17335     17723     17335
     17726     17335     17729     17335     17732     17335     17735     17335
     17738     17335     17741     17335     17744     17335     17747     17335
     17750     17335     17753     17335     17756     17335     17759     17335
     17762     17335     17765     17335     17768     17335     17771     17335
     17774     17335     17777     17335     17780     17335     17783     17335
     17786     17335     17789     17335     17792     17335     17795     17335
     17798     17335     17801     17335     17804     17335     17807     17335
     17810     17335     17813     17335     17816     17335     17819     17335
     17822     17335     17825     17335     17828     17335     17831     17335
     17834     17335     17837     17335     17840     17335     17843     17335
     17846     17335     17849     17335     17852     17335     17855     17335
     17858     17335     17861     17335     17864     17335     17867     17335
     17870     17335     17873     17335     17876     17335     17879     17335
     17882     17335     17885     17335     17888     17335     17891     17335
     17894     17335     17897     17335     17900     17335     17903     17335
     17906     17335     17909     17335     17912     17335     17915     17335
     17918     17335     17921     17335     17924     17335     17927     17335
     17930     17335     17933     17335     17936     17335     17939     17335
     17942     17335     17945     17335     17948     17335     17951     17335
     17954     17335     17957     17335     17960     17335     17963     17335
     17966     17335     17969     17335     17972     17335     17975     17335
     17978     17335     17981     17335     17984     17335     17987     17335
     17990     17335     17993     17335     17996     17335     17999     17335
     18002     17335     18005     17335     18008     17335     18011     17335
     18014     17335     18017     17335     18020     17335     18023     17335
     18026     17335     18029     17335     18032     17335     18035     17335
     18038     17335     18041     17335     18044     17335     18047     17335
     18050     17335     18053     17335     18056     17335     18059     17335
     18062     17335     18065     17335     18068     17335     18071     17335
     18074     17335     18077     17335     18080     17335     18083     17335
     18086     17335     18089     17335     18092     17335     18095     17335
     18098     17335     18101     17335     18104     17335     18107     17335
     18110     17335     18113     17335     18116     17335     18119     17335
     18122     17335     18125     17335     18128     17335     18131     17335
     18134     17335     18137     17335     18140     17335     18143     17335
     18146     17335     18149     17335     18152     17335     18155     17335
     18158     17335     18161     17335     18164     17335     18167     17335
     18170     17335     18173     17335     18176     17335     18179     17335
     18182     17335     18185     17335     18188     17335     18191     17335
     18194     17335     18197     17335     18200     17335     18203     17335
     18206     17335     18209     17335     18212     17335     18215     17335
     18218     17335     18221     17335     18224     17335     18227     17335
     18230     17335     18233     17335     18236     17335     18239     17335
     18242     17335     18245     17335     18248     17335     18251     17335
     18254     17335     18257     17335     18260     17335     18263     17335
     18266     17335     18269     17335     18272     17335     18275     17335
     18278     17335     18281     17335     18284     17335     18287     17335
     18290     17335     18293     17335     18296     17335     18299     17335
     18302     17335     18305     17335     18308     17335     18311     17335
     18314     17335     18317     17335     18320     17335     18323     17335
     18326     17335     18329     17335     18332     17335     18335     17335
     18338     17335     18341     17335     18344     17335     18347     17335
     18350     17335     18353     17335     18356     17335     18359     17335
     18362     17335     18365     17335     18368     17335     18371     17335
     18374     17335     18377     17335     18380     17335     18383     17335
     18386     17335     18389     17335     18392     17335     18395     17335
     18398     17335     18401     17335     18404     17335     18407     17335
     18410     17335     18413     17335     18416     17335     18419     17335
     18422     17335     18425     17335     18428     17335     18431     17335
     18434     17335     18437     17335     18440     17335     18443     17335
     18446     17335     18449     17335     18452     17335     18455     17335
     18458     17335     18461     17335     18464     17335     18467     17335
     18470     17335     18473     17335     18476     17335     18479     17335
     18482     17335     18485     17335     18488     17335     18491     17335
     18494     17335     18497     17335     18500     17335     18503     17335
     18506     17335     18509     17335     18512     17335     18515     17335
     18518     17335     18521     17335     18524     17335     18527     17335
     18530     17335     18533     17335     18536     17335     18539     17335
     18542     17335     18545     17335     18548     17335     18551     17335
     18554     17335     18557     17335     18560     17335     18563     17335
     18566     17335     18569     17335     18572     17335     18575     17335
     18578     17335     18581     17335     18584     17335     18587     17335
     18590     17335     18593     17335     18596     17335     18599     17335
     18602     17335     18605     17335     18608     17335     18611     17335
     18614     17335     18617     17335     18620     17335     18623     17335
     18626     17335     18629     17335     18632     17335     18635     17335
     18638     17335     18641     17335     18644     17335     18647     17335
     18650     17335     18653     17335     18656     17335     18659     17335
     18662     17335     18665     17335     18668     17335     18671     17335
     18674     17335     18677     17335     18680     17335     18683     17335
     18686     17335     18689     17335     18692     17335     18695     17335
     18698     17335     18701     17335     18704     17335     18707     17335
     18710     17335     18713     17335     18716     17335     18719     17335
     18722     17335     18725     17335     18728     17335     18731     17335
     18734     17335     18737     17335     18740     17335     18743     17335
     18746     17335     18749     17335     18752     17335     18755     17335
     18758     17335     18761     17335     18764     17335     18767     17335
     18770     17335     18773     17335     18776     17335     18779     17335
     18782     17335     18785     17335     18788     17335     18791     17335
     18794     17335     18797     17335     18800     17335     18803     17335
     18806     17335     18809     17335     18812     17335     18815     17335
     18818     17335     18821     17335     18824     17335     18827     17335
     18830     17335     18833     17335     18836     17335     18839     17335
     18842     17335     18845     17335     18848     17335     18851     17335
     18854     17335     18857     17335     18860     17335     18863     17335
     18866     17335     18869     17335     18872     17335     18875     17335
     18878     17335     18881     17335     18884     17335     18887     17335
     18890     17335     18893     17335     18896     17335     18899     17335
     18902     17335     18905     17335     18908     17335     18911     17335
     18914     17335     18917     17335     18920     17335     18923     17335
     18926     17335     18929     17335     18932     17335     18935     17335
     18938     17335     18941     17335     18944     17335     18947     17335
     18950     17335     18953     17335     18956     17335     18959     17335
     18962     17335     18965     17335     18968     17335     18971     17335
     18974     17335     18977     17335     18980     17335     18983     17335
     18986     17335     18989     17335     18992     17335     18995     17335
     18998     17335     19001     17335     19004     17335     19007     17335
     19010     17335     19013     17335     19016     17335     19019     17335
     19022     17335     19025     17335     19028     17335     19031     17335
     19034     17335     19037     17335     19040     17335     19043     17335
     19046     17335     19049     17335     19052     17335     19055     17335
     19058     17335     19061     17335     19064     17335     19067     17335
     19070     17335     19073     17335     19076     17335     19079     17335
     19082     17335     19085     17335     19088     17335     19091     17335
     19094     17335     19097     17335     19100     17335     19103     17335
     19106     17335     19109     17335     19112     17335     19115     17335
     19118     17335     19121     17335     19124     17335     19127     17335
     19130     17335     19133     17335     19136     17335     19139     17335
     19142     17335     19145     17335     19148     17335     19151     17335
     19154     17335     19157     17335     19160     17335     19163     17335
     19166     17335     19169     17335     19172     17335     19175     17335
     19178     17335     19181     17335     19184     17335     19187     17335
     19190     17335     19193     17335     19196     17335     19199     17335
     19202     17335     19205     17335     19208     17335     19211     17335
     19214     17335     19217     17335     19220     17335     19223     17335
     19226     17335     19229     17335     19232     17335     19235     17335
     19238     17335     19241     17335     19244     17335     19247     17335
     19250     17335     19253     17335     19256     17335     19259     17335
     19262     17335     19265     17335     19268     17335     19271     17335
     19274     17335     19277     17335     19280     17335     19283     17335
     19286     17335     19289     17335     19292     17335     19295     17335
     19298     17335     19301     17335     19304     17335     19307     17335
     19310     17335     19313     17335     19316     17335     19319     17335
     19322     17335     19325     17335     19328     17335     19331     17335
     19334     17335     19337     17335     19340     17335     19343     17335
     19346     17335     19349     17335     19352     17335     19355     17335
     19358     17335     19361     17335     19364     17335     19367     17335
     19370     17335     19373     17335     19376     17335     19379     17335
     19382     17335     19385     17335     19388     17335     19391     17335
     19394     17335     19397     17335     19400     17335     19403     17335
     19406     17335     19409     17335     19412     17335     19415     17335
     19418     17335     19421     17335     19424     17335     19427     17335
     19430     17335     19433     17335     19436     17335     19439     17335
     19442     17335     19445     17335     19448     17335     19451     17335
     19454     17335     19457     17335     19460     17335     19463     17335
     19466     17335     19469     17335     19472     17335     19475     17335
     19478     17335     19481     17335     19484     17335     19487     17335
     19490     17335     19493     17335     19496     17335     19499     17335
     19502     17335     19505     17335     19508     17335     19511     17335
     19514     17335     19517     17335     19520     17335     19523     17335
     19526     17335     19529     17335     19532     17335     19535     17335
     19538     17335     19541     17335     19544     17335     19547     17335
     19550     17335     19553     17335     19556     17335     19559     17335
     19562     17335     19565     17335     19568     17335     19571     17335
     19574     17335     19577     17335     19580     17335     19583     17335
     19586     17335     19589     17335     19592     17335     19595     17335
     19598     17335     19601     17335     19604     17335     19607     17335
     19610     17335     19613     17335     19616     17335     19619     17335
     19622     17335     19625     17335     19628     17335     19631     17335
     19634     17335     19637     17335     19640     17335     19643     17335
     19646     17335     19649     17335     19652     17335     19655     17335
     19658     17335     19661     17335     19664     17335     19667     17335
     19670     17335     19673     17335     19676     17335     19679     17335
     19682     17335     19685     17335     19688     17335     19691     17335
     19694     17335     19697     17335     19700     17335     19703     17335
     19706     17335     19709     17335     19712     17335     19715     17335
     19718     17335     19721     17335     19724     17335     19727     17335
     19730     17335     19733     17335     19736     17335     19739     17335
     19742     17335     19745     17335     19748     17335     19751     17335
     19754     17335     19757     17335     19760     17335     19763     17335
     19766     17335     19769     17335     19772     17335     19775     17335
     19778     17335     19781     17335     19784     17335     19787     17335
     19790     17335     19793     17335     19796     17335     19799     17335
     19802     17335     19805     17335     19808     17335     19811     17335
     19814     17335     19817     17335     19820     17335     19823     17335
     19826     17335     19829     17335     19832     17335     19835     17335
     19838     17335     19841     17335     19844     17335     19847     17335
     19850     17335     19853     17335     19856     17335     19859     17335
     19862     17335     19865     17335     19868     17335     19871     17335
     19874     17335     19877     17335     19880     17335     19883     17335
     19886     17335     19889     17335     19892     17335     19895     17335
     19898     17335     19901     17335     19904     17335     19907     17335
     19910     17335     19913     17335     19916     17335     19919     17335
     19922     17335     19925     17335     19928     17335     19931     17335
     19934     17335     19937     17335     19940     17335     19943     17335
     19946     17335     19949     17335     19952     17335     19955     17335
     19958     17335     19961     17335     19964     17335     19967     17335
     19970     17335     19973     17335     19976     17335     19979     17335
     19982     17335     19985     17335     19988     17335     19991     17335
     19994     17335     19997     17335     20000     17335     20003     17335
     20006     17335     20009     17335     20012     17335     20015     17335
     20018     17335     20021     17335     20024     17335     20027     17335
     20030     17335     20033     17335     20036     17335     20039     17335
     20042     17335     20045     17335     20048     17335     20051     17335
     20054     17335     20057     17335     20060     17335     20063     17335
     20066     17335     20069     17335     20072     17335     20075     17335
     20078     17335     20081     17335     20084     17335     20087     17335
     20090     17335     20093     17335     20096     17335     20099     17335
     20102     17335     20105     17335     20108     17335     20111     17335
     20114     17335     20117     17335     20120     17335     20123     17335
     20126     17335     20129     17335     20132     17335     20135     17335
     20138     17335     20141     17335     20144     17335     20147     17335
     20150     17335     20153     17335     20156     17335     20159     17335
     20162     17335     20165     17335     20168     17335     20171     17335
     20174     17335     20177     17335     20180     17335     20183     17335
     20186     17335     20189     17335     20192     17335     20195     17335
     20198     17335     20201     17335     20204     17335     20207     17335
     20210     17335     20213     17335     20216     17335     20219     17335
     20222     17335     20225     17335     20228     17335     20231     17335
     20234     17335     20237     17335     20240     17335     20243     17335
     20246     17335     20249     17335     20252     17335     20255     17335
     20258     17335     20261     17335     20264     17335     20267     17335
     20270     17335     20273     17335     20276     17335     20279     17335
     20282     17335     20285     17335     20288     17335     20291     17335
     20294     17335     20297     17335     20300     17335     20303     17335
     20306     17335     20309     17335     20312     17335     20315     17335
     20318     17335     20321     17335     20324     17335     20327     17335
     20330     17335     20333     17335     20336     17335     20339     17335
     20342     17335     20345     17335     20348     17335     20351     17335
     20354     17335     20357     17335     20360     17335     20363     17335
     20366     17335     20369     17335     20372     17335     20375     17335
     20378     17335     20381     17335     20384     17335     20387     17335
     20390     17335     20393     17335     20396     17335     20399     17335
     20402     17335     20405     17335     20408     17335     20411     17335
     20414     17335     20417     17335     20420     17335     20423     17335
     20426     17335     20429     17335     20432     17335     20435     17335
     20438     17335     20441     17335     20444     17335     20447     17335
     20450     17335     20453     17335     20456     17335     20459     17335
     20462     17335     20465     17335     20468     17335     20471     17335
     20474     17335     20477     17335     20480     17335     20483     17335
     20486     17335     20489     17335     20492     17335     20495     17335
     20498     17335     20501     17335     20504     17335     20507     17335
     20510     17335     20513     17335     20516     17335     20519     17335
     20522     17335     20525     17335     20528     17335     20531     17335
     20534     17335     20537     17335     20540     17335     20543     17335
     20546     17335     20549     17335     20552     17335     20555     17335
     20558     17335     20561     17335     20564     17335     20567     17335
     20570     17335     20573     17335     20576     17335     20579     17335
     20582     17335     20585     17335     20588     17335     20591     17335
     20594     17335     20597     17335     20600     17335     20603     17335
     20606     17335     20609     17335     20612     17335     20615     17335
     20618     17335     20621     17335     20624     17335     20627     17335
     20630     17335     20633     17335     20636     17335     20639     17335
     20642     17335     20645     17335     20648     17335     20651     17335
     20654     17335     20657     17335     20660     17335     20663     17335
     20666     17335     20669     17335     20672     17335     20675     17335
     20678     17335     20681     17335     20684     17335     20687     17335
     20690     17335     20693     17335     20696     17335     20699     17335
     20702     17335     20705     17335     20708     17335     20711     17335
     20714     17335     20717     17335     20720     17335     20723     17335
     20726     17335     20729     17335     20732     17335     20735     17335
     20738     17335     20741     17335     20744     17335     20747     17335
     20750     17335     20753     17335     20756     17335     20759     17335
     20762     17335     20765     17335     20768     17335     20771     17335
     20774     17335     20777     17335     20780     17335     20783     17335
     20786     17335     20789     17335     20792     17335     20795     17335
     20798     17335     20801     17335     20804     17335     20807     17335
     20810     17335     20813     17335     20816     17335     20819     17335
     20822     17335     20825     17335     20828     17335     20831     17335
     20834     17335     20837     17335     20840     17335     20843     17335
     20846     17335     20849     17335     20852     17335     20855     17335
     20858     17335     20861     17335     20864     17335     20867     17335
     20870     17335     20873     17335     20876     17335     20879     17335
     20882     17335     20885     17335     20888     17335     20891     17335
     20894     17335     20897     17335     20900     17335     20903     17335
     20906     17335     20909     17335     20912     17335     20915     17335
     20918     17335     20921     17335     20924     17335     20927     17335
     20930     17335     20933     17335     20936     17335     20939     17335
     20942     17335     20945     17335     20948     17335     20951     17335
     20954     17335     20957     17335     20960     17335     20963     17335
     20966     17335     20969     17335     20972     17335     20975     17335
     20978     17335     20981     17335     20984     17335     20987     17335
     20990     17335     20993     17335     20996     17335     20999     17335
     21002     17335     21005     17335     21008     17335     21011     17335
     21014     17335     21017     17335     21020     17335     21023     17335
     21026     17335     21029     17335     21032     17335     21035     17335
     21038     17335     21041     17335     21044     17335     21047     17335
     21050     17335     21053     17335     21056     17335     21059     17335
     21062     17335     21065     17335     21068     17335     21071     17335
     21074     17335     21077     17335     21080     17335     21083     17335
     21086     17335     21089     17335     21092     17335     21095     17335
     21098     17335     21101     17335     21104     17335     21107     17335
     21110     17335     21113     17335     21116     17335     21119     17335
     21122     17335     21125     17335     21128     17335     21131     17335
     21134     17335     21137     17335     21140     17335     21143     17335
     21146     17335     21149     17335     21152     17335     21155     17335
     21158     17335     21161     17335     21164     17335     21167     17335
     21170     17335     21173     17335     21176     17335     21179     17335
     21182     17335     21185     17335     21188     17335     21191     17335
     21194     17335     21197     17335     21200     17335     21203     17335
     21206     17335     21209     17335     21212     17335     21215     17335
     21218     17335     21221     17335     21224     17335     21227     17335
     21230     17335     21233     17335     21236     17335     21239     17335
     21242     17335     21245     17335     21248     17335     21251     17335
     21254     17335     21257     17335     21260     17335     21263     17335
     21266     17335     21269     17335     21272     17335     21275     17335
     21278     17335     21281     17335     21284     17335     21287     17335
     21290     17335     21293     17335     21296     17335     21299     17335
     21302     17335     21305     17335     21308     17335     21311     17335
     21314     17335     21317     17335     21320     17335     21323     17335
     21326     17335     21329     17335     21332     17335     21335     17335
     21338     17335     21341     17335     21344     17335     21347     17335
     21350     17335     21353     17335     21356     17335     21359     17335
     21362     17335     21365     17335     21368     17335     21371     17335
     21374     17335     21377     17335     21380     17335     21383     17335
     21386     17335     21389     17335     21392     17335     21395     17335
     21398     17335     21401     17335     21404     17335     21407     17335
     21410     17335     21413     17335     21416     17335     21419     17335
     21422     17335     21425     17335     21428     17335     21431     17335
     21434     17335     21437     17335     21440     17335     21443     17335
     21446     17335     21449     17335     21452     17335     21455     17335
     21458     17335     21461     17335     21464     17335     21467     17335
     21470     17335     21473     17335     21476     17335     21479     17335
     21482     17335     21485     17335     21488     17335     21491     17335
     21494     17335     21497     17335     21500     17335     21503     17335
     21506     17335     21509     17335     21512     17335     21515     17335
     21518     17335     21521     17335     21524     17335     21527     17335
     21530     17335     21533     17335     21536     17335     21539     17335
     21542     17335     21545     17335     21548     17335     21551     17335
     21554     17335     21557     17335     21560     17335     21563     17335
     21566     17335     21569     17335     21572     17335     21575     17335
     21578     17335     21581     17335     21584     17335     21587     17335
     21590     17335     21593     17335     21596     17335     21599     17335
     21602     17335     21605     17335     21608     17335     21611     17335
     21614     17335     21617     17335     21620     17335     21623     17335
     21626     17335     21629     17335     21632     17335     21635     17335
     21638     17335     21641     17335     21644     17335     21647     17335
     21650     17335     21653     17335     21656     17335     21659     17335
     21662     17335     21665     17335     21668     17335     21671     17335
     21674     17335     21677     17335     21680     17335     21683     17335
     21686     17335     21689     17335     21692     17335     21695     17335
     21698     17335     21701     17335     21704     17335     21707     17335
     21710     17335     21713     17335     21716     17335     21719     17335
     21722     17335     21725     17335     21728     17335     21731     17335
     21734     17335     21737     17335     21740     17335     21743     17335
     21746     17335     21749     17335     21752     17335     21755     17335
     21758     17335     21761     17335     21764     17335     21767     17335
     21770     17335     21773     17335     21776     17335     21779     17335
     21782     17335     21785     17335     21788     17335     21791     17335
     21794     17335     21797     17335     21800     17335     21803     17335
     21806     17335     21809     17335     21812     17335     21815     17335
     21818     17335     21821     17335     21824     17335     21827     17335
     21830     17335     21833     17335     21836     17335     21839     17335
     21842     17335     21845     17335     21848     17335     21851     17335
     21854     17335     21857     17335     21860     17335     21863     17335
     21866     17335     21869     17335     21872     17335     21875     17335
     21878     17335     21881     17335     21884     17335     21887     17335
     21890     17335     21893     17335     21896     17335     21899     17335
     21902     17335     21905     17335     21908     17335     21911     17335
     21914     17335     21917     17335     21920     17335     21923     17335
     21926     17335     21929     17335     21932     17335     21935     17335
     21938     17335     21941     17335     21944     17335     21947     17335
     21950     17335     21953     17335     21956     17335     21959     17335
     21962     17335     21965     17335     21968     17335     21971     17335
     21974     17335     21977     17335     21980     17335     21983     17335
     21986     17335     21989     17335     21992     17335     21995     17335
     21998     17335     22001     17335     22004     17335     22007     17335
     22010     17335     22013     17335     22016     17335     22019     17335
     22022     17335     22025     17335     22028     17335     22031     17335
     22034     17335     22037     17335     22040     17335     22043     17335
     22046     17335     22049     17335     22052     17335     22055     17335
     22058     17335     22061     17335     22064     17335     22067     17335
     22070     17335     22073     17335     22076     17335     22079     17335
     22082     17335     22085     17335     22088     17335     22091     17335
     22094     17335     22097     17335     22100     17335     22103     17335
     22106     17335     22109     17335     22112     17335     22115     17335
     22118     17335     22121     17335     22124     17335     22127     17335
     22130     17335     22133     17335     22136     17335     22139     17335
     22142     17335     22145     17335     22148     17335     22151     17335
     22154     17335     22157     17335     22160     17335     22163     17335
     22166     17335     22169     17335     22172     17335     22175     17335
     22178     17335     22181     17335     22184     17335     22187     17335
     22190     17335     22193     17335     22196     17335     22199     17335
     22202     17335     22205     17335     22208     17335     22211     17335
     22214     17335     22217     17335     22220     17335     22223     17335
     22226     17335     22229     17335     22232     17335     22235     17335
     22238     17335     22241     17335     22244     17335     22247     17335
     22250     17335     22253     17335     22256     17335     22259     17335
     22262     17335     22265     17335     22268     17335     22271     17335
     22274     17335     22277     17335     22280     17335     22283     17335
     22286     17335     22289     17335     22292     17335     22295     17335
     22298     17335     22301     17335     22304     17335     22307     17335
     22310     17335     22313     17335     22316     17335     22319     17335
     22322     17335     22325     17335     22328     17335     22331     17335
     22334     17335     22337     17335     22340     17335     22343     17335
     22346     17335     22349     17335     22352     17335     22355     17335
     22358     17335     22361     17335     22364     17335     22367     17335
     22370     17335     22373     17335     22376     17335     22379     17335
     22382     17335     22385     17335     22388     17335     22391     17335
     22394     17335     22397     17335     22400     17335     22403     17335
     22406     17335     22409     17335     22412     17335     22415     17335
     22418     17335     22421     17335     22424     17335     22427     17335
     22430     17335     22433     17335     22436     17335     22439     17335
     22442     17335     22445     17335     22448     17335     22451     17335
     22454     17335     22457     17335     22460     17335     22463     17335
     22466     17335     22469     17335     22472     17335     22475     17335
     22478     17335     22481     17335     22484     17335     22487     17335
     22490     17335     22493     17335     22496     17335     22499     17335
     22502     17335     22505     17335     22508     17335     22511     17335
     22514     17335     22517     17335     22520     17335     22523     17335
     22526     17335     22529     17335     22532     17335     22535     17335
     22538     17335     22541     17335     22544     17335     22547     17335
     22550     17335     22553     17335     22556     17335     22559     17335
     22562     17335     22565     17335     22568     17335     22571     17335
     22574     17335     22577     17335     22580     17335     22583     17335
     22586     17335     22589     17335     22592     17335     22595     17335
     22598     17335     22601     17335     22604     17335     22607     17335
     22610     17335     22613     17335     22616     17335     22619     17335
     22622     17335     22625     17335     22628     17335     22631     17335
     22634     17335     22637     17335     22640     17335     22643     17335
     22646     17335     22649     17335     22652     17335     22655     17335
     22658     17335     22661     17335     22664     17335     22667     17335
     22670     17335     22673     17335     22676     17335     22679     17335
     22682     17335     22685     17335     22688     17335     22691     17335
     22694     17335     22697     17335     22700     17335     22703     17335
     22706     17335     22709     17335     22712     17335     22715     17335
     22718     17335     22721     17335     22724     17335     22727     17335
     22730     17335     22733     17335     22736     17335     22739     17335
     22742     17335     22745     17335     22748     17335     22751     17335
     22754     17335     22757     17335     22760     17335     22763     17335
     22766     17335     22769     17335     22772     17335     22775     17335
     22778     17335     22781     17335     22784     17335     22787     17335
     22790     17335     22793     17335     22796     17335     22799     17335
     22802     17335     22805     17335     22808     17335     22811     17335
     22814     17335     22817     17335     22820     17335     22823     17335
     22826     17335     22829     17335     22832     17335     22835     17335
     22838     17335     22841     17335     22844     17335     22847     17335
     22850     17335     22853     17335     22856     17335     22859     17335
     22862     17335     22865     17335     22868     17335     22871     17335
     22874     17335     22877     17335     22880     17335     22883     17335
     22886     17335     22889     17335     22892     17335     22895     17335
     22898     17335     22901     17335     22904     17335     22907     17335
     22910     17335     22913     17335     22916     17335     22919     17335
     22922     17335     22925     17335     22928     17335     22931     17335
     22934     17335     22937     17335     22940     17335     22943     17335
     22946     17335     22949     17335     22952     17335     22955     17335
     22958     17335     22961     17335     22964     17335     22967     17335
     22970     17335     22973     17335     22976     17335     22979     17335
     22982     17335     22985     17335     22988     17335     22991     17335
     22994     17335     22997     17335     23000     17335     23003     17335
     23006     17335     23009     17335     23012     17335     23015     17335
     23018     17335     23021     17335     23024     17335     23027     17335
     23030     17335     23033     17335     23036     17335     23039     17335
     23042     17335     23045     17335     23048     17335     23051     17335
     23054     17335     23057     17335     23060     17335     23063     17335
     23066     17335     23069     17335     23072     17335     23075     17335
     23078     17335     23081     17335     23084     17335     23087     17335
     23090     17335     23093     17335     23096     17335     23099     17335
     23102     17335     23105     17335     23108     17335     23111     17335
     23114     17335     23117     17335     23120     17335     23123     17335
     23126     17335     23129     17335     23132     17335     23135     17335
     23138     17335     23141     17335     23144     17335     23147     17335
     23150     17335     23153     17335     23156     17335     23159     17335
     23162     17335     23165     17335     23168     17335     23171     17335
     23174     17335     23177     17335     23180     17335     23183     17335
     23186     17335     23189     17335     23192     17335     23195     17335
     23198     17335     23201     17335     23204     17335     23207     17335
     23210     17335     23213     17335     23216     17335     23219     17335
     23222     17335     23225     17335     23228     17335     23231     17335
     23234     17335     23237     17335     23240     17335     23243     17335
     23246     17335     23249     17335     23252     17335     23255     17335
     23258     17335     23261     17335     23264     17335     23267     17335
     23270     17335     23273     17335     23276     17335     23279     17335
     23282     17335     23285     17335     23288     17335     23291     17335
     23294     17335     23297     17335     23300     17335     23303     17335
     23306     17335     23309     17335     23312     17335     23315     17335
     23318     17335     23321     17335     23324     17335     23327     17335
     23330     17335     23333     17335     23336     17335     23339     17335
     23342     17335     23345     17335     23348     17335     23351     17335
     23354     17335     23357     17335     23360     17335     23363     17335
     23366     17335     23369     17335     23372     17335     23375     17335
     23378     17335     23381     17335     23384     17335     23387     17335
     23390     17335     23393     17335     23396     17335     23399     17335
     23402     17335     23405     17335     23408     17335     23411     17335
     23414     17335     23417     17335     23420     17335     23423     17335
     23426     17335     23429     17335     23432     17335     23435     17335
     23438     17335     23441     17335     23444     17335     23447     17335
     23450     17335     23453     17335     23456     17335     23459     17335
     23462     17335     23465     17335     23468     17335     23471     17335
     23474     17335     23477     17335     23480     17335     23483     17335
     23486     17335     23489     17335     23492     17335     23495     17335
     23498     17335     23501     17335     23504     17335     23507     17335
     23510     17335     23513     17335     23516     17335     23519     17335
     23522     17335     23525     17335     23528     17335     23531     17335
     23534     17335     23537     17335     23540     17335     23543     17335
     23546     17335     23549     17335     23552     17335     23555     17335
     23558     17335     23561     17335     23564     17335     23567     17335
     23570     17335     23573     17335     23576     17335     23579     17335
     23582     17335     23585     17335     23588     17335     23591     17335
     23594     17335     23597     17335     23600     17335     23603     17335
     23606     17335     23609     17335     23612     17335     23615     17335
     23618     17335     23621     17335     23624     17335     23627     17335
     23630     17335     23633     17335     23636     17335     23639     17335
     23642     17335     23645     17335     23648     17335     23651     17335
     23654     17335     23657     17335     23660     17335     23663     17335
     23666     17335     23669     17335     23672     17335     23675     17335
     23678     17335     23681     17335     23684     17335     23687     17335
     23690     17335     23693     17335     23696     17335     23699     17335
     23702     17335     23705     17335     23708     17335     23711     17335
     23714     17335     23717     17335     23720     17335     23723     17335
     23726     17335     23729     17335     23732     17335     23735     17335
     23738     17335     23741     17335     23744     17335     23747     17335
     23750     17335     23753     17335     23756     17335     23759     17335
     23762     17335     23765     17335     23768     17335     23771     17335
     23774     17335     23777     17335     23780     17335     23783     17335
     23786     17335     23789     17335     23792     17335     23795     17335
     23798     17335     23801     17335     23804     17335     23807     17335
     23810     17335     23813     17335     23816     17335     23819     17335
     23822     17335     23825     17335     23828     17335     23831     17335
     23834     17335     23837     17335     23840     17335     23843     17335
     23846     17335     23849     17335     23852     17335     23855     17335
     23858     17335     23861     17335     23864     17335     23867     17335
     23870     17335     23873     17335     23876     17335     23879     17335
     23882     17335     23885     17335     23888     17335     23891     17335
     23894     17335     23897     17335     23900     17335     23903     17335
     23906     17335     23909     17335     23912     17335     23915     17335
     23918     17335     23921     17335     23924     17335     23927     17335
     23930     17335     23933     17335     23936     17335     23939     17335
     23942     17335     23945     17335     23948     17335     23951     17335
     23954     17335     23957     17335     23960     17335     23963     17335
     23966     17335     23969     17335     23972     17335     23975     17335
     23978     17335     23981     17335     23984     17335     23987     17335
     23990     17335     23993     17335     23996     17335     23999     17335
     24002     17335     24005     17335     24008     17335     24011     17335
     24014     17335     24017     17335     24020     17335     24023     17335
     24026     17335     24029     17335     24032     17335     24035     17335
     24038     17335     24041     17335     24044     17335     24047     17335
     24050     17335     24053     17335     24056     17335     24059     17335
     24062     17335     24065     17335     24068     17335     24071     17335
     24074     17335     24077     17335     24080     17335     24083     17335
     24086     17335     24089     17335     24092     17335     24095     17335
     24098     17335     24101     17335     24104     17335     24107     17335
     24110     17335     24113     17335     24116     17335     24119     17335
     24122     17335     24125     17335     24128     17335     24131     17335
     24134     17335     24137     17335     24140     17335     24143     17335
     24146     17335     24149     17335     24152     17335     24155     17335
     24158     17335     24161     17335     24164     17335     24167     17335
     24170     17335     24173     17335     24176     17335     24179     17335
     24182     17335     24185     17335     24188     17335     24191     17335
     24194     17335     24197     17335     24200     17335     24203     17335
     24206     17335     24209     17335     24212     17335     24215     17335
     24218     17335     24221     17335     24224     17335     24227     17335
     24230     17335     24233     17335     24236     17335     24239     17335
     24242     17335     24245     17335     24248     17335     24251     17335
     24254     17335     24257     17335     24260     17335     24263     17335
     24266     17335     24269     17335     24272     17335     24275     17335
     24278     17335     24281     17335     24284     17335     24287     17335
     24290     17335     24293     17335     24296     17335     24299     17335
     24302     17335     24305     17335     24308     17335     24311     17335
     24314     17335     24317     17335     24320     17335     24323     17335
     24326     17335     24329     17335     24332     17335     24335     17335
     24338     17335     24341     17335     24344     17335     24347     17335
     24350     17335     24353     17335     24356     17335     24359     17335
     24362     17335     24365     17335     24368     17335     24371     17335
     24374     17335     24377     17335     24380     17335     24383     17335
     24386     17335     24389     17335     24392     17335     24395     17335
     24398     17335     24401     17335     24404     17335     24407     17335
     24410     17335     24413     17335     24416     17335     24419     17335
     24422     17335     24425     17335     24428     17335     24431     17335
     24434     17335     24437     17335     24440     17335     24443     17335
     24446     17335     24449     17335     24452     17335     24455     17335
     24458     17335     24461     17335     24464     17335     24467     17335
     24470     17335     24473     17335     24476     17335     24479     17335
     24482     17335     24485     17335     24488     17335     24491     17335
     24494     17335     24497     17335     24500     17335     24503     17335
     24506     17335     24509     17335     24512     17335     24515     17335
     24518     17335     24521     17335     24524     17335     24527     17335
     24530     17335     24533     17335     24536     17335     24539     17335
     24542     17335     24545     17335     24548     17335     24551     17335
     24554     17335     24557     17335     24560     17335     24563     17335
     24566     17335     24569     17335     24572     17335     24575     17335
     24578     17335     24581     17335     24584     17335     24587     17335
     24590     17335     24593     17335     24596     17335     24599     17335
     24602     17335     24605     17335     24608     17335     24611     17335
     24614     17335     24617     17335     24620     17335     24623     17335
     24626     17335     24629     17335     24632     17335     24635     17335
     24638     17335     24641     17335     24644     17335     24647     17335
     24650     17335     24653     17335     24656     17335     24659     17335
     24662     17335     24665     17335     24668     17335     24671     17335
     24674     17335     24677     17335     24680     17335     24683     17335
     24686     17335     24689     17335     24692     17335     24695     17335
     24698     17335     24701     17335     24704     17335     24707     17335
     24710     17335     24713     17335     24716     17335     24719     17335
     24722     17335     24725     17335     24728     17335     24731     17335
     24734     17335     24737     17335     24740     17335     24743     17335
     24746     17335     24749     17335     24752     17335     24755     17335
     24758     17335     24761     17335     24764     17335     24767     17335
     24770     17335     24773     17335     24776     17335     24779     17335
     24782     17335     24785     17335     24788     17335     24791     17335
     24794     17335     24797     17335     24800     17335     24803     17335
     24806     17335     24809     17335     24812     17335     24815     17335
     24818     17335     24821     17335     24824     17335     24827     17335
     24830     17335     24833     17335     24836     17335     24839     17335
     24842     17335     24845     17335     24848     17335     24851     17335
     24854     17335     24857     17335     24860     17335     24863     17335
     24866     17335     24869     17335     24872     17335     24875     17335
     24878     17335     24881     17335     24884     17335     24887     17335
     24890     17335     24893     17335     24896     17335     24899     17335
     24902     17335     24905     17335     24908     17335     24911     17335
     24914     17335     24917     17335     24920     17335     24923     17335
     24926     17335     24929     17335     24932     17335     24935     17335
     24938     17335     24941     17335     24944     17335     24947     17335
     24950     17335     24953     17335     24956     17335     24959     17335
     24962     17335     24965     17335     24968     17335     24971     17335
     24974     17335     24977     17335     24980     17335     24983     17335
     24986     17335     24989     17335     24992     17335     24995     17335
     24998     17335     25001     17335     25004     17335     25007     17335
     25010     17335     25013     17335     25016     17335     25019     17335
     25022     17335     25025     17335     25028     17335     25031     17335
     25034     17335     25037     17335     25040     17335     25043     17335
     25046     17335     25049     17335     25052     17335     25055     17335
     25058     17335     25061     17335     25064     17335     25067     17335
     25070     17335     25073     17335     25076     17335     25079     17335
     25082     17335     25085     17335     25088     17335     25091     17335
     25094     17335     25097     17335     25100     17335     25103     17335
     25106     17335     25109     17335     25112     17335     25115     17335
     25118     17335     25121     17335     25124     17335     25127     17335
     25130     17335     25133     17335     25136     17335     25139     17335
     25142     17335     25145     17335     25148     17335     25151     17335
     25154     17335     25157     17335     25160     17335     25163     17335
     25166     17335     25169     17335     25172     17335     25175     17335
     25178     17335     25181     17335     25184     17335     25187     17335
     25190     17335     25193     17335     25196     17335     25199     17335
     25202     17335     25205     17335     25208     17335     25211     17335
     25214     17335     25217     17335     25220     17335     25223     17335
     25226     17335     25229     17335     25232     17335     25235     17335
     25238     17335     25241     17335     25244     17335     25247     17335
     25250     17335     25253     17335     25256     17335     25259     17335
     25262     17335     25265     17335     25268     17335     25271     17335
     25274     17335     25277     17335     25280     17335     25283     17335
     25286     17335     25289     17335     25292     17335     25295     17335
     25298     17335     25301     17335     25304     17335     25307     17335
     25310     17335     25313     17335     25316     17335     25319     17335
     25322     17335     25325     17335     25328     17335     25331     17335
     25334     17335     25337     17335     25340     17335     25343     17335
     25346     17335     25349     17335     25352     17335     25355     17335
     25358     17335     25361     17335     25364     17335     25367     17335
     25370     17335     25373     17335     25376     17335     25379     17335
     25382     17335     25385     17335     25388     17335     25391     17335
     25394     17335     25397     17335     25400     17335     25403     17335
     25406     17335     25409     17335     25412     17335     25415     17335
     25418     17335     25421     17335     25424     17335     25427     17335
     25430     17335     25433     17335     25436     17335     25439     17335
     25442     17335     25445     17335     25448     17335     25451     17335
     25454     17335     25457     17335     25460     17335     25463     17335
     25466     17335     25469     17335     25472     17335     25475     17335
     25478     17335     25481     17335     25484     17335     25487     17335
     25490     17335     25493     17335     25496     17335     25499     17335
     25502     17335     25505     17335     25508     17335     25511     17335
     25514     17335     25517     17335     25520     17335     25523     17335
     25526     17335     25529     17335     25532     17335     25535     17335
     25538     17335     25541     17335     25544     17335     25547     17335
     25550     17335     25553     17335     25556     17335     25559     17335
     25562     17335     25565     17335     25568     17335     25571     17335
     25574     17335     25577     17335     25580     17335     25583     17335
     25586     17335     25589     17335     25592     17335     25595     17335
     25598     17335     25601     17335     25604     17335     25607     17335
     25610     17335     25613     17335     25616     17335     25619     17335
     25622     17335     25625     17335     25628     17335     25631     17335
     25634     17335     25637     17335     25640     17335     25643     17335
     25646     17335     25649     17335     25652     17335     25655     17335
     25658     17335     25661     17335     25664     17335     25667     17335
     25670     17335     25673     17335     25676     17335     25679     17335
     25682     17335     25685     17335     25688     17335     25691     17335
     25694     17335     25697     17335     25700     17335     25703     17335
     25706     17335     25709     17335     25712     17335     25715     17335
     25718     17335     25721     17335     25724     17335     25727     17335
     25730     17335     25733     17335     25736     17335     25739     17335
     25742     17335     25745     17335     25748     17335     25751     17335
     25754     17335     25757     17335     25760     17335     25763     17335
     25766     17335     25769     17335     25772     17335     25775     17335
     25778     17335     25781     17335     25784     17335     25787     17335
     25790     17335     25793     17335     25796     17335     25799     17335
     25802     17335     25805     17335     25808     17335     25811     17335
     25814     17335     25817     17335     25820     17335     25823     17335
     25826     17335     25829     17335     25832     17335     25835     17335
     25838     17335     25841     17335     25844     17335     25847     17335
     25850     17335     25853     17335     25856     17335     25859     17335
     25862     17335     25865     17335     25868     17335     25871     17335
     25874     17335     25877     17335     25880     17335     25883     17335
     25886     17335     25889     17335     25892     17335     25895     17335
     25898     17335     25901     17335     25904     17335     25907     17335
     25910     17335     25913     17335     25916     17335     25919     17335
     25922     17335     25925     17335     25928     17335     25931     17335
     25934     17335     25937     17335     25940     17335     25943     17335
     25946     17335     25949     17335     25952     17335     25955     17335
     25958     17335     25961     17335     25964     17335     25967     17335
     25970     17335     25973     17335     25976     17335     25979     17335
     25982     17335     25985     17335     25988     17335     25991     17335
     25994     17335     25997     17335     26000     17335     26003     17335
     26006     17335     26009     17335     26012     17335     26015     17335
     26018     17335     26021     17335     26024     17335     26027     17335
     26030     17335     26033     17335     26036     17335     26039     17335
     26042     17335     26045     17335     26048     17335     26051     17335
     26054     17335     26057     17335     26060     17335     26063     17335
     26066     17335     26069     17335     26072     17335     26075     17335
     26078     17335     26081     17335     26084     17335     26087     17335
     26090     17335     26093     17335     26096     17335     26099     17335
     26102     17335     26105     17335     26108     17335     26111     17335
     26114     17335     26117     17335     26120     17335     26123     17335
     26126     17335     26129     17335     26132     17335     26135     17335
     26138     17335     26141     17335     26144     17335     26147     17335
     26150     17335     26153     17335     26156     17335     26159     17335
     26162     17335     26165     17335     26168     17335     26171     17335
     26174     17335     26177     17335     26180     17335     26183     17335
     26186     17335     26189     17335     26192     17335     26195     17335
     26198     17335     26201     17335     26204     17335     26207     17335
     26210     17335     26213     17335     26216     17335     26219     17335
     26222     17335     26225     17335     26228     17335     26231     17335
     26234     17335     26237     17335     26240     17335     26243     17335
     26246     17335     26249     17335     26252     17335     26255     17335
     26258     17335     26261     17335     26264     17335     26267     17335
     26270     17335     26273     17335     26276     17335     26279     17335
     26282     17335     26285     17335     26288     17335     26291     17335
     26294     17335     26297     17335     26300     17335     26303     17335
     26306     17335     26309     17335     26312     17335     26315     17335
     26318     17335     26321     17335     26324     17335     26327     17335
     26330     17335     26333     17335     26336     17335     26339     17335
     26342     17335     26345     17335     26348     17335     26351     17335
     26354     17335     26357     17335     26360     17335     26363     17335
     26366     17335     26369     17335     26372     17335     26375     17335
     26378     17335     26381     17335     26384     17335     26387     17335
     26390     17335     26393     17335     26396     17335     26399     17335
     26402     17335     26405     17335     26408     17335     26411     17335
     26414     17335     26417     17335     26420     17335     26423     17335
     26426     17335     26429     17335     26432     17335     26435     17335
     26438     17335     26441     17335     26444     17335     26447     17335
     26450     17335     26453     17335     26456     17335     26459     17335
     26462     17335     26465     17335     26468     17335     26471     17335
     26474     17335     26477     17335     26480     17335     26483     17335
     26486     17335     26489     17335     26492     17335     26495     17335
     26498     17335     26501     17335     26504     17335     26507     17335
     26510     17335     26513     17335     26516     17335     26519     17335
     26522     17335     26525     17335     26528     17335     26531     17335
     26534     17335     26537     17335     26540     17335     26543     17335
     26546     17335     26549     17335     26552     17335     26555     17335
     26558     17335     26561     17335     26564     17335     26567     17335
     26570     17335     26573     17335     26576     17335     26579     17335
     26582     17335     26585     17335     26588     17335     26591     17335
     26594     17335     26597     17335     26600     17335     26603     17335
     26606     17335     26609     17335     26612     17335     26615     17335
     26618     17335     26621     17335     26624     17335     26627     17335
     26630     17335     26633     17335     26636     17335     26639     17335
     26642     17335     26645     17335     26648     17335     26651     17335
     26654     17335     26657     17335     26660     17335     26663     17335
     26666     17335     26669     17335     26672     17335     26675     17335
     26678     17335     26681     17335     26684     17335     26687     17335
     26690     17335     26693     17335     26696     17335     26699     17335
     26702     17335     26705     17335     26708     17335     26711     17335
     26714     17335     26717     17335     26720     17335     26723     17335
     26726     17335     26729     17335     26732     17335     26735     17335
     26738     17335     26741     17335     26744     17335     26747     17335
     26750     17335     26753     17335     26756     17335     26759     17335
     26762     17335     26765     17335     26768     17335     26771     17335
     26774     17335     26777     17335     26780     17335     26783     17335
     26786     17335     26789     17335     26792     17335     26795     17335
     26798     17335     26801     17335     26804     17335     26807     17335
     26810     17335     26813     17335     26816     17335     26819     17335
     26822     17335     26825     17335     26828     17335     26831     17335
     26834     17335     26837     17335     26840     17335     26843     17335
     26846     17335     26849     17335     26852     17335     26855     17335
     26858     17335     26861     17335     26864     17335     26867     17335
     26870     17335     26873     17335     26876     17335     26879     17335
     26882     17335     26885     17335     26888     17335     26891     17335
     26894     17335     26897     17335     26900     17335     26903     17335
     26906     17335     26909     17335     26912     17335     26915     17335
     26918     17335     26921     17335     26924     17335     26927     17335
     26930     17335     26933     17335     26936     17335     26939     17335
     26942     17335     26945     17335     26948     17335     26951     17335
     26954     17335     26957     17335     26960     17335     26963     17335
     26966     17335     26969     17335     26972     17335     26975     17335
     26978     17335     26981     17335     26984     17335     26987     17335
     26990     17335     26993     17335     26996     17335     26999     17335
     27002     17335     27005     17335     27008     17335     27011     17335
     27014     17335     27017     17335     27020     17335     27023     17335
     27026     17335     27029     17335     27032     17335     27035     17335
     27038     17335     27041     17335     27044     17335     27047     17335
     27050     17335     27053     17335     27056     17335     27059     17335
     27062     17335     27065     17335     27068     17335     27071     17335
     27074     17335     27077     17335     27080     17335     27083     17335
     27086     17335     27089     17335     27092     17335     27095     17335
     27098     17335     27101     17335     27104     17335     27107     17335
     27110     17335     27113     17335     27116     17335     27119     17335
     27122     17335     27125     17335     27128     17335     27131     17335
     27134     17335     27137     17335     27140     17335     27143     17335
     27146     17335     27149     17335     27152     17335     27155     17335
     27158     17335     27161     17335     27164     17335     27167     17335
     27170     17335     27173     17335     27176     17335     27179     17335
     27182     17335     27185     17335     27188     17335     27191     17335
     27194     17335     27197     17335     27200     17335     27203     17335
     27206     17335     27209     17335     27212     17335     27215     17335
     27218     17335     27221     17335     27224     17335     27227     17335
     27230     17335     27233     17335     27236     17335     27239     17335
     27242     17335     27245     17335     27248     17335     27251     17335
     27254     17335     27257     17335     27260     17335     27263     17335
     27266     17335     27269     17335     27272     17335     27275     17335
     27278     17335     27281     17335     27284     17335     27287     17335
     27290     17335     27293     17335     27296     17335     27299     17335
     27302     17335     27305     17335     27308     17335     27311     17335
     27314     17335     27317     17335     27320     17335     27323     17335
     27326     17335     27329     17335     27332     17335     27335     17335
     27338     17335     27341     17335     27344     17335     27347     17335
     27350     17335     27353     17335     27356     17335     27359     17335
     27362     17335     27365     17335     27368     17335     27371     17335
     27374     17335     27377     17335     27380     17335     27383     17335
     27386     17335     27389     17335     27392     17335     27395     17335
     27398     17335     27401     17335     27404     17335     27407     17335
     27410     17335     27413     17335     27416     17335     27419     17335
     27422     17335     27425     17335     27428     17335     27431     17335
     27434     17335     27437     17335     27440     17335     27443     17335
     27446     17335     27449     17335     27452     17335     27455     17335
     27458     17335     27461     17335     27464     17335     27467     17335
     27470     17335     27473     17335     27476     17335     27479     17335
     27482     17335     27485     17335     27488     17335     27491     17335
     27494     17335     27497     17335     27500     17335     27503     17335
     27506     17335     27509     17335     27512     17335     27515     17335
     27518     17335     27521     17335     27524     17335     27527     17335
     27530     17335     27533     17335     27536     17335     27539     17335
     27542     17335     27545     17335     27548     17335     27551     17335
     27554     17335     27557     17335     27560     17335     27563     17335
     27566     17335     27569     17335     27572     17335     27575     17335
     27578     17335     27581     17335     27584     17335     27587     17335
     27590     17335     27593     17335     27596     17335     27599     17335
     27602     17335     27605     17335     27608     17335     27611     17335
     27614     17335     27617     17335     27620     17335     27623     17335
     27626     17335     27629     17335     27632     17335     27635     17335
     27638     17335     27641     17335     27644     17335     27647     17335
     27650     17335     27653     17335     27656     17335     27659     17335
     27662     17335     27665     17335     27668     17335     27671     17335
     27674     17335     27677     17335     27680     17335     27683     17335
     27686     17335     27689     17335     27692     17335     27695     17335
     27698     17335     27701     17335     27704     17335     27707     17335
     27710     17335     27713     17335     27716     17335     27719     17335
     27722     17335     27725     17335     27728     17335     27731     17335
     27734     17335     27737     17335     27740     17335     27743     17335
     27746     17335     27749     17335     27752     17335     27755     17335
     27758     17335     27761     17335     27764     17335     27767     17335
     27770     17335     27773     17335     27776     17335     27779     17335
     27782     17335     27785     17335     27788     17335     27791     17335
     27794     17335     27797     17335     27800     17335     27803     17335
     27806     17335     27809     17335     27812     17335     27815     17335
     27818     17335     27821     17335     27824     17335     27827     17335
     27830     17335     27833     17335     27836     17335     27839     17335
     27842     17335     27845     17335     27848     17335     27851     17335
     27854     17335     27857     17335     27860     17335     27863     17335
     27866     17335     27869     17335     27872     17335     27875     17335
     27878     17335     27881     17335     27884     17335     27887     17335
     27890     17335     27893     17335     27896     17335     27899     17335
     27902     17335     27905     17335     27908     17335     27911     17335
     27914     17335     27917     17335     27920     17335     27923     17335
     27926     17335     27929     17335     27932     17335     27935     17335
     27938     17335     27941     17335     27944     17335     27947     17335
     27950     17335     27953     17335     27956     17335     27959     17335
     27962     17335     27965     17335     27968     17335     27971     17335
     27974     17335     27977     17335     27980     17335     27983     17335
     27986     17335     27989     17335     27992     17335     27995     17335
     27998     17335     28001     17335     28004     17335     28007     17335
     28010     17335     28013     17335     28016     17335     28019     17335
     28022     17335     28025     17335     28028     17335     28031     17335
     28034     17335     28037     17335     28040     17335     28043     17335
     28046     17335     28049     17335     28052     17335     28055     17335
     28058     17335     28061     17335     28064     17335     28067     17335
     28070     17335     28073     17335     28076     17335     28079     17335
     28082     17335     28085     17335     28088     17335     28091     17335
     28094     17335     28097     17335     28100     17335     28103     17335
     28106     17335     28109     17335     28112     17335     28115     17335
     28118     17335     28121     17335     28124     17335     28127     17335
     28130     17335     28133     17335     28136     17335     28139     17335
     28142     17335     28145     17335     28148     17335     28151     17335
     28154     17335     28157     17335     28160     17335     28163     17335
     28166     17335     28169     17335     28172     17335     28175     17335
     28178     17335     28181     17335     28184     17335     28187     17335
     28190     17335     28193     17335     28196     17335     28199     17335
     28202     17335     28205     17335     28208     17335     28211     17335
     28214     17335     28217     17335     28220     17335     28223     17335
     28226     17335     28229     17335     28232     17335     28235     17335
     28238     17335     28241     17335     28244     17335     28247     17335
     28250     17335     28253     17335     28256     17335     28259     17335
     28262     17335     28265     17335     28268     17335     28271     17335
     28274     17335     28277     17335     28280     17335     28283     17335
     28286     17335     28289     17335     28292     17335     28295     17335
     28298     17335     28301     17335     28304     17335     28307     17335
     28310     17335     28313     17335     28316     17335     28319     17335
     28322     17335     28325     17335     28328     17335     28331     17335
     28334     17335     28337     17335     28340     17335     28343     17335
     28346     17335     28349     17335     28352     17335     28355     17335
     28358     17335     28361     17335     28364     17335     28367     17335
     28370     17335     28373     17335     28376     17335     28379     17335
     28382     17335     28385     17335     28388     17335     28391     17335
     28394     17335     28397     17335     28400     17335     28403     17335
     28406     17335     28409     17335     28412     17335     28415     17335
     28418     17335     28421     17335     28424     17335     28427     17335
     28430     17335     28433     17335     28436     17335     28439     17335
     28442     17335     28445     17335     28448     17335     28451     17335
     28454     17335     28457     17335     28460     17335     28463     17335
     28466     17335     28469     17335     28472     17335     28475     17335
     28478     17335     28481     17335     28484     17335     28487     17335
     28490     17335     28493     17335     28496     17335     28499     17335
     28502     17335     28505     17335     28508     17335     28511     17335
     28514     17335     28517     17335     28520     17335     28523     17335
     28526     17335     28529     17335     28532     17335     28535     17335
     28538     17335     28541     17335     28544     17335     28547     17335
     28550     17335     28553     17335     28556     17335     28559     17335
     28562     17335     28565     17335     28568     17335     28571     17335
     28574     17335     28577     17335     28580     17335     28583     17335
     28586     17335     28589     17335     28592     17335     28595     17335
     28598     17335     28601     17335     28604     17335     28607     17335
     28610     17335     28613     17335     28616     17335     28619     17335
     28622     17335     28625     17335     28628     17335     28631     17335
     28634     17335     28637     17335     28640     17335     28643     17335
     28646     17335     28649     17335     28652     17335     28655     17335
     28658     17335     28661     17335     28664     17335     28667     17335
     28670     17335     28673     17335     28676     17335     28679     17335
     28682     17335     28685     17335     28688     17335     28691     17335
     28694     17335     28697     17335     28700     17335     28703     17335
     28706     17335     28709     17335     28712     17335     28715     17335
     28718     17335     28721     17335     28724     17335     28727     17335
     28730     17335     28733     17335     28736     17335     28739     17335
     28742     17335     28745     17335     28748     17335     28751     17335
     28754     17335     28757     17335     28760     17335     28763     17335
     28766     17335     28769     17335     28772     17335     28775     17335
     28778     17335     28781     17335     28784     17335     28787     17335
     28790     17335     28793     17335     28796     17335     28799     17335
     28802     17335     28805     17335     28808     17335     28811     17335
     28814     17335     28817     17335     28820     17335     28823     17335
     28826     17335     28829     17335     28832     17335     28835     17335
     28838     17335     28841     17335     28844     17335     28847     17335
     28850     17335     28853     17335     28856     17335     28859     17335
     28862     17335     28865     17335     28868     17335     28871     17335
     28874     17335     28877     17335     28880     17335     28883     17335
     28886     17335     28889     17335     28892     17335     28895     17335
     28898     17335     28901     17335     28904     17335     28907     17335
     28910     17335     28913     17335     28916     17335     28919     17335
     28922     17335     28925     17335     28928     17335     28931     17335
     28934     17335     28937     17335     28940     17335     28943     17335
     28946     17335     28949     17335     28952     17335     28955     17335
     28958     17335     28961     17335     28964     17335     28967     17335
     28970     17335     28973     17335     28976     17335     28979     17335
     28982     17335     28985     17335     28988     17335     28991     17335
     28994     17335     28997     17335     29000     17335     29003     17335
     29006     17335     29009     17335     29012     17335     29015     17335
     29018     17335     29021     17335     29024     17335     29027     17335
     29030     17335     29033     17335     29036     17335     29039     17335
     29042     17335     29045     17335     29048     17335     29051     17335
     29054     17335     29057     17335     29060     17335     29063     17335
     29066     17335     29069     17335     29072     17335     29075     17335
     29078     17335     29081     17335     29084     17335     29087     17335
     29090     17335     29093     17335     29096     17335     29099     17335
     29102     17335     29105     17335     29108     17335     29111     17335
     29114     17335     29117     17335     29120     17335     29123     17335
     29126     17335     29129     17335     29132     17335     29135     17335
     29138     17335     29141     17335     29144     17335     29147     17335
     29150     17335     29153     17335     29156     17335     29159     17335
     29162     17335     29165     17335     29168     17335     29171     17335
     29174     17335     29177     17335     29180     17335     29183     17335
     29186     17335     29189     17335     29192     17335     29195     17335
     29198     17335     29201     17335     29204     17335     29207     17335
     29210     17335     29213     17335     29216     17335     29219     17335
     29222     17335     29225     17335     29228     17335     29231     17335
     29234     17335     29237     17335     29240     17335     29243     17335
     29246     17335     29249     17335     29252     17335     29255     17335
     29258     17335     29261     17335     29264     17335     29267     17335
     29270     17335     29273     17335     29276     17335     29279     17335
     29282     17335     29285     17335     29288     17335     29291     17335
     29294     17335     29297     17335     29300     17335     29303     17335
     29306     17335     29309     17335     29312     17335     29315     17335
     29318     17335     29321     17335     29324     17335     29327     17335
     29330     17335     29333     17335     29336     17335     29339     17335
     29342     17335     29345     17335     29348     17335     29351     17335
     29354     17335     29357     17335     29360     17335     29363     17335
     29366     17335     29369     17335     29372     17335     29375     17335
     29378     17335     29381     17335     29384     17335     29387     17335
     29390     17335     29393     17335     29396     17335     29399     17335
     29402     17335     29405     17335     29408     17335     29411     17335
     29414     17335     29417     17335     29420     17335     29423     17335
     29426     17335     29429     17335     29432     17335     29435     17335
     29438     17335     29441     17335     29444     17335     29447     17335
     29450     17335     29453     17335     29456     17335     29459     17335
     29462     17335     29465     17335     29468     17335     29471     17335
     29474     17335     29477     17335     29480     17335     29483     17335
     29486     17335     29489     17335     29492     17335     29495     17335
     29498     17335     29501     17335     29504     17335     29507     17335
     29510     17335     29513     17335     29516     17335     29519     17335
     29522     17335     29525     17335     29528     17335     29531     17335
     29534     17335     29537     17335     29540     17335     29543     17335
     29546     17335     29549     17335     29552     17335     29555     17335
     29558     17335     29561     17335     29564     17335     29567     17335
     29570     17335     29573     17335     29576     17335     29579     17335
     29582     17335     29585     17335     29588     17335     29591     17335
     29594     17335     29597     17335     29600     17335     29603     17335
     29606     17335     29609     17335     29612     17335     29615     17335
     29618     17335     29621     17335     29624     17335     29627     17335
     29630     17335     29633     17335     29636     17335     29639     17335
     29642     17335     29645     17335     29648     17335     29651     17335
     29654     17335     29657     17335     29660     17335     29663     17335
     29666     17335     29669     17335     29672     17335     29675     17335
     29678     17335     29681     17335     29684     17335     29687     17335
     29690     17335     29693     17335     29696     17335     29699     17335
     29702     17335     29705     17335     29708     17335     29711     17335
     29714     17335     29717     17335     29720     17335     29723     17335
     29726     17335     29729     17335     29732     17335     29735     17335
     29738     17335     29741     17335     29744     17335     29747     17335
     29750     17335     29753     17335     29756     17335     29759     17335
     29762     17335     29765     17335     29768     17335     29771     17335
     29774     17335     29777     17335     29780     17335     29783     17335
     29786     17335     29789     17335     29792     17335     29795     17335
     29798     17335     29801     17335     29804     17335     29807     17335
     29810     17335     29813     17335     29816     17335     29819     17335
     29822     17335     29825     17335     29828     17335     29831     17335
     29834     17335     29837     17335     29840     17335     29843     17335
     29846     17335     29849     17335     29852     17335     29855     17335
     29858     17335     29861     17335     29864     17335     29867     17335
     29870     17335     29873     17335     29876     17335     29879     17335
     29882     17335     29885     17335     29888     17335     29891     17335
     29894     17335     29897     17335     29900     17335     29903     17335
     29906     17335     29909     17335     29912     17335     29915     17335
     29918     17335     29921     17335     29924     17335     29927     17335
     29930     29929     29933     29929     29936     29929     29939     29929
     29942     29929     29945     29929     29948     29929     29951     29929
     29954     29929     29957     29929     29960     29929     29963     29929
     29966     29929     29969     29929     29972     29929     29975     29929
     29978     29929     29981     29929     29984     29929     29987     29929
     29990     29929     29993     29929     29996     29929     29999     29929
     30002     29929     30005     29929     30008     29929     30011     29929
     30014     29929     30017     29929     30020     29929     30023     29929
     30026     29929     30029     29929     30032     29929     30035     29929
     30038     29929     30041     29929     30044     29929     30047     29929
     30050     29929     30053     29929     30056     29929     30059     29929
     30062     29929     30065     29929     30068     29929     30071     29929
     30074     29929     30077     29929     30080     29929     30083     29929
     30086     29929     30089     29929     30092     29929     30095     29929
     30098     29929     30101     29929     30104     29929     30107     29929
     30110     29929     30113     29929     30116     29929     30119     29929
     30122     29929     30125     29929     30128     29929     30131     29929
     30134     29929     30137     29929     30140     29929     30143     29929
     30146     29929     30149     29929     30152     29929     30155     29929
     30158     29929     30161     29929     30164     29929     30167     29929
     30170     29929     30173     29929     30176     29929     30179     29929
     30182     29929     30185     29929     30188     29929     30191     29929
     30194     29929     30197     29929     30200     29929     30203     29929
     30206     29929     30209     29929     30212     29929     30215     29929
     30218     29929     30221     29929     30224     29929     30227     29929
     30230     29929     30233     29929     30236     29929     30239     29929
     30242     29929     30245     29929     30248     29929     30251     29929
     30254     29929     30257     29929     30260     29929     30263     29929
     30266     29929     30269     29929     30272     29929     30275     29929
     30278     29929     30281     29929     30284     29929     30287     29929
     30290     29929     30293     29929     30296     29929     30299     29929
     30302     29929     30305     29929     30308     29929     30311     29929
     30314     29929     30317     29929     30320     29929     30323     29929
     30326     29929     30329     29929     30332     29929     30335     29929
     30338     29929     30341     29929     30344     29929     30347     29929
     30350     29929     30353     29929     30356     29929     30359     29929
     30362     29929     30365     29929     30368     29929     30371     29929
     30374     29929     30377     29929     30380     29929     30383     29929
     30386     29929     30389     29929     30392     29929     30395     29929
     30398     29929     30401     29929     30404     29929     30407     29929
     30410     29929     30413     29929     30416     29929     30419     29929
     30422     29929     30425     29929     30428     29929     30431     29929
     30434     29929     30437     29929     30440     29929     30443     29929
     30446     29929     30449     29929     30452     29929     30455     29929
     30458     29929     30461     29929     30464     29929     30467     29929
     30470     29929     30473     29929     30476     29929     30479     29929
     30482     29929     30485     29929     30488     29929     30491     29929
     30494     29929     30497     29929     30500     29929     30503     29929
     30506     29929     30509     29929     30512     29929     30515     29929
     30518     29929     30521     29929     30524     29929     30527     29929
     30530     29929     30533     29929     30536     29929     30539     29929
     30542     29929     30545     29929     30548     29929     30551     29929
     30554     29929     30557     29929     30560     29929     30563     29929
     30566     29929     30569     29929     30572     29929     30575     29929
     30578     29929     30581     29929     30584     29929     30587     29929
     30590     29929     30593     29929     30596     29929     30599     29929
     30602     29929     30605     29929     30608     29929     30611     29929
     30614     29929     30617     29929     30620     29929     30623     29929
     30626     29929     30629     29929     30632     29929     30635     29929
     30638     29929     30641     29929     30644     29929     30647     29929
     30650     29929     30653     29929     30656     29929     30659     29929
     30662     29929     30665     29929     30668     29929     30671     29929
     30674     29929     30677     29929     30680     29929     30683     29929
     30686     29929     30689     29929     30692     29929     30695     29929
     30698     29929     30701     29929     30704     29929     30707     29929
     30710     29929     30713     29929     30716     29929     30719     29929
     30722     29929     30725     29929     30728     29929     30731     29929
     30734     29929     30737     29929     30740     29929     30743     29929
     30746     29929     30749     29929     30752     29929     30755     29929
     30758     29929     30761     29929     30764     29929     30767     29929
     30770     29929     30773     29929     30776     29929     30779     29929
     30782     29929     30785     29929     30788     29929     30791     29929
     30794     29929     30797     29929     30800     29929     30803     29929
     30806     29929     30809     29929     30812     29929     30815     29929
     30818     29929     30821     29929     30824     29929     30827     29929
     30830     29929     30833     29929     30836     29929     30839     29929
     30842     29929     30845     29929     30848     29929     30851     29929
     30854     29929     30857     29929     30860     29929     30863     29929
     30866     29929     30869     29929     30872     29929     30875     29929
     30878     29929     30881     29929     30884     29929     30887     29929
     30890     29929     30893     29929     30896     29929     30899     29929
     30902     29929     30905     29929     30908     29929     30911     29929
     30914     29929     30917     29929     30920     29929     30923     29929
     30926     29929     30929     29929     30932     29929     30935     29929
     30938     29929     30941     29929     30944     29929     30947     29929
     30950     29929     30953     29929     30956     29929     30959     29929
     30962     29929     30965     29929     30968     29929     30971     29929
     30974     29929     30977     29929     30980     29929     30983     29929
     30986     29929     30989     29929     30992     29929     30995     29929
     30998     29929     31001     29929     31004     29929     31007     29929
     31010     29929     31013     29929     31016     29929     31019     29929
     31022     29929     31025     29929     31028     29929     31031     29929
     31034     29929     31037     29929     31040     29929     31043     29929
     31046     29929     31049     29929     31052     29929     31055     29929
     31058     29929     31061     29929     31064     29929     31067     29929
     31070     29929     31073     29929     31076     29929     31079     29929
     31082     29929     31085     29929     31088     29929     31091     29929
     31094     29929     31097     29929     31100     29929     31103     29929
     31106     29929     31109     29929     31112     29929     31115     29929
     31118     29929     31121     29929     31124     29929     31127     29929
     31130     29929     31133     29929     31136     29929     31139     29929
     31142     29929     31145     29929     31148     29929     31151     29929
     31154     29929     31157     29929     31160     29929     31163     29929
     31166     29929     31169     29929     31172     29929     31175     29929
     31178     29929     31181     29929     31184     29929     31187     29929
     31190     29929     31193     29929     31196     29929     31199     29929
     31202     29929     31205     29929     31208     29929     31211     29929
     31214     29929     31217     29929     31220     29929     31223     29929
     31226     29929     31229     29929     31232     29929     31235     29929
     31238     29929     31241     29929     31244     29929     31247     29929
     31250     29929     31253     29929     31256     29929     31259     29929
     31262     29929     31265     29929     31268     29929     31271     29929
     31274     29929     31277     29929     31280     29929     31283     29929
     31286     29929     31289     29929     31292     29929     31295     29929
     31298     29929     31301     29929     31304     29929     31307     29929
     31310     29929     31313     29929     31316     29929     31319     29929
     31322     29929     31325     29929     31328     29929     31331     29929
     31334     29929     31337     29929     31340     29929     31343     29929
     31346     29929     31349     29929     31352     29929     31355     29929
     31358     29929     31361     29929     31364     29929     31367     29929
     31370     29929     31373     29929     31376     29929     31379     29929
     31382     29929     31385     29929     31388     29929     31391     29929
     31394     29929     31397     29929     31400     29929     31403     29929
     31406     29929     31409     29929     31412     29929     31415     29929
     31418     29929     31421     29929     31424     29929     31427     29929
     31430     29929     31433     29929     31436     29929     31439     29929
     31442     29929     31445     29929     31448     29929     31451     29929
     31454     29929     31457     29929     31460     29929     31463     29929
     31466     29929     31469     29929     31472     29929     31475     29929
     31478     29929     31481     29929     31484     29929     31487     29929
     31490     29929     31493     29929     31496     29929     31499     29929
     31502     29929     31505     29929     31508     29929     31511     29929
     31514     29929     31517     29929     31520     29929     31523     29929
     31526     29929     31529     29929     31532     29929     31535     29929
     31538     29929     31541     29929     31544     29929     31547     29929
     31550     29929     31553     29929     31556     29929     31559     29929
     31562     29929     31565     29929     31568     29929     31571     29929
     31574     29929     31577     29929     31580     29929     31583     29929
     31586     29929     31589     29929     31592     29929     31595     29929
     31598     29929     31601     29929     31604     29929     31607     29929
     31610     29929     31613     29929     31616     29929     31619     29929
     31622     29929     31625     29929     31628     29929     31631     29929
     31634     29929     31637     29929     31640     29929     31643     29929
     31646     29929     31649     29929     31652     29929     31655     29929
     31658     29929     31661     29929     31664     29929     31667     29929
     31670     29929     31673     29929     31676     29929     31679     29929
     31682     29929     31685     29929     31688     29929     31691     29929
     31694     29929     31697     29929     31700     29929     31703     29929
     31706     29929     31709     29929     31712     29929     31715     29929
     31718     29929     31721     29929     31724     29929     31727     29929
     31730     29929     31733     29929     31736     29929     31739     29929
     31742     29929     31745     29929     31748     29929     31751     29929
     31754     29929     31757     29929     31760     29929     31763     29929
     31766     29929     31769     29929     31772     29929     31775     29929
     31778     29929     31781     29929     31784     29929     31787     29929
     31790     29929     31793     29929     31796     29929     31799     29929
     31802     29929     31805     29929     31808     29929     31811     29929
     31814     29929     31817     29929     31820     29929     31823     29929
     31826     29929     31829     29929     31832     29929     31835     29929
     31838     29929     31841     29929     31844     29929     31847     29929
     31850     29929     31853     29929     31856     29929     31859     29929
     31862     29929     31865     29929     31868     29929     31871     29929
     31874     29929     31877     29929     31880     29929     31883     29929
     31886     29929     31889     29929     31892     29929     31895     29929
     31898     29929     31901     29929     31904     29929     31907     29929
     31910     29929     31913     29929     31916     29929     31919     29929
     31922     29929     31925     29929     31928     29929     31931     29929
     31934     29929     31937     29929     31940     29929     31943     29929
     31946     29929     31949     29929     31952     29929     31955     29929
     31958     29929     31961     29929     31964     29929     31967     29929
     31970     29929     31973     29929     31976     29929     31979     29929
     31982     29929     31985     29929     31988     29929     31991     29929
     31994     29929     31997     29929     32000     29929     32003     29929
     32006     29929     32009     29929     32012     29929     32015     29929
     32018     29929     32021     29929     32024     29929     32027     29929
     32030     29929     32033     29929     32036     29929     32039     29929
     32042     29929     32045     29929     32048     29929     32051     29929
     32054     29929     32057     29929     32060     29929     32063     29929
     32066     29929     32069     29929     32072     29929     32075     29929
     32078     29929     32081     29929     32084     29929     32087     29929
     32090     29929     32093     29929     32096     29929     32099     29929
     32102     29929     32105     29929     32108     29929     32111     29929
     32114     29929     32117     29929     32120     29929     32123     29929
     32126     29929     32129     29929     32132     29929     32135     29929
     32138     29929     32141     29929     32144     29929     32147     29929
     32150     29929     32153     29929     32156     29929     32159     29929
     32162     29929     32165     29929     32168     29929     32171     29929
     32174     29929     32177     29929     32180     29929     32183     29929
     32186     29929     32189     29929     32192     29929     32195     29929
     32198     29929     32201     29929     32204     29929     32207     29929
     32210     29929     32213     29929     32216     29929     32219     29929
     32222     29929     32225     29929     32228     29929     32231     29929
     32234     29929     32237     29929     32240     29929     32243     29929
     32246     29929     32249     29929     32252     29929     32255     29929
     32258     29929     32261     29929     32264     29929     32267     29929
     32270     29929     32273     29929     32276     29929     32279     29929
     32282     29929     32285     29929     32288     29929     32291     29929
     32294     29929     32297     29929     32300     29929     32303     29929
     32306     29929     32309     29929     32312     29929     32315     29929
     32318     29929     32321     29929     32324     29929     32327     29929
     32330     29929     32333     29929     32336     29929     32339     29929
     32342     29929     32345     29929     32348     29929     32351     29929
     32354     29929     32357     29929     32360     29929     32363     29929
     32366     29929     32369     29929     32372     29929     32375     29929
     32378     29929     32381     29929     32384     29929     32387     29929
     32390     29929     32393     29929     32396     29929     32399     29929
     32402     29929     32405     29929     32408     29929     32411     29929
     32414     29929     32417     29929     32420     29929     32423     29929
     32426     29929     32429     29929     32432     29929     32435     29929
     32438     29929     32441     29929     32444     29929     32447     29929
     32450     29929     32453     29929     32456     29929     32459     29929
     32462     29929     32465     29929     32468     29929     32471     29929
     32474     29929     32477     29929     32480     29929     32483     29929
     32486     29929     32489     29929     32492     29929     32495     29929
     32498     29929     32501     29929     32504     29929     32507     29929
     32510     29929     32513     29929     32516     29929     32519     29929
     32522     29929     32525     29929     32528     29929     32531     29929
     32534     29929     32537     29929     32540     29929     32543     29929
     32546     29929     32549     29929     32552     29929     32555     29929
     32558     29929     32561     29929     32564     29929     32567     29929
     32570     29929     32573     29929     32576     29929     32579     29929
     32582     29929     32585     29929     32588     29929     32591     29929
     32594     29929     32597     29929     32600     29929     32603     29929
     32606     29929     32609     29929     32612     29929     32615     29929
     32618     29929     32621     29929     32624     29929     32627     29929
     32630     29929     32633     29929     32636     29929     32639     29929
     32642     29929     32645     29929     32648     29929     32651     29929
     32654     29929     32657     29929     32660     29929     32663     29929
     32666     29929     32669     29929     32672     29929     32675     29929
     32678     29929     32681     29929     32684     29929     32687     29929
     32690     29929     32693     29929     32696     29929     32699     29929
     32702     29929     32705     29929     32708     29929     32711     29929
     32714     29929     32717     29929     32720     29929     32723     29929
     32726     29929     32729     29929     32732     29929     32735     29929
     32738     29929     32741     29929     32744     29929     32747     29929
     32750     29929     32753     29929     32756     29929     32759     29929
     32762     29929     32765     29929     32768     29929     32771     29929
     32774     29929     32777     29929     32780     29929     32783     29929
     32786     29929     32789     29929     32792     29929     32795     29929
     32798     29929     32801     29929     32804     29929     32807     29929
     32810     29929     32813     29929     32816     29929     32819     29929
     32822     29929     32825     29929     32828     29929     32831     29929
     32834     29929     32837     29929     32840     29929     32843     29929
     32846     29929     32849     29929     32852     29929     32855     29929
     32858     29929     32861     29929     32864     29929     32867     29929
     32870     29929     32873     29929     32876     29929     32879     29929
     32882     29929     32885     29929     32888     29929     32891     29929
     32894     29929     32897     29929     32900     29929     32903     29929
     32906     29929     32909     29929     32912     29929     32915     29929
     32918     29929     32921     29929     32924     29929     32927     29929
     32930     29929     32933     29929     32936     29929     32939     29929
     32942     29929     32945     29929     32948     29929     32951     29929
     32954     29929     32957     29929     32960     29929     32963     29929
     32966     29929     32969     29929     32972     29929     32975     29929
     32978     29929     32981     29929     32984     29929     32987     29929
     32990     29929     32993     29929     32996     29929     32999     29929
     33002     29929     33005     29929     33008     29929     33011     29929
     33014     29929     33017     29929     33020     29929     33023     29929
     33026     29929     33029     29929     33032     29929     33035     29929
     33038     29929     33041     29929     33044     29929     33047     29929
     33050     29929     33053     29929     33056     29929     33059     29929
     33062     29929     33065     29929     33068     29929     33071     29929
     33074     29929     33077     29929     33080     29929     33083     29929
     33086     29929     33089     29929     33092     29929     33095     29929
     33098     29929     33101     29929     33104     29929     33107     29929
     33110     29929     33113     29929     33116     29929     33119     29929
     33122     29929     33125     29929     33128     29929     33131     29929
     33134     29929     33137     29929     33140     29929     33143     29929
     33146     29929     33149     29929     33152     29929     33155     29929
     33158     29929     33161     29929     33164     29929     33167     29929
     33170     29929     33173     29929     33176     29929     33179     29929
     33182     29929     33185     29929     33188     29929     33191     29929
     33194     29929     33197     29929     33200     29929     33203     29929
     33206     29929     33209     29929     33212     29929     33215     29929
     33218     29929     33221     29929     33224     29929     33227     29929
     33230     29929     33233     29929     33236     29929     33239     29929
     33242     29929     33245     29929     33248     29929     33251     29929
     33254     29929     33257     29929     33260     29929     33263     29929
     33266     29929     33269     29929     33272     29929     33275     29929
     33278     29929     33281     29929     33284     29929     33287     29929
     33290     29929     33293     29929     33296     29929     33299     29929
     33302     29929     33305     29929     33308     29929     33311     29929
     33314     29929     33317     29929     33320     29929     33323     29929
     33326     29929     33329     29929     33332     29929     33335     29929
     33338     29929     33341     29929     33344     29929     33347     29929
     33350     29929     33353     29929     33356     29929     33359     29929
     33362     29929     33365     29929     33368     29929     33371     29929
     33374     29929     33377     29929     33380     29929     33383     29929
     33386     29929     33389     29929     33392     29929     33395     29929
     33398     29929     33401     29929     33404     29929     33407     29929
     33410     29929     33413     29929     33416     29929     33419     29929
     33422     29929     33425     29929     33428     29929     33431     29929
     33434     29929     33437     29929     33440     29929     33443     29929
     33446     29929     33449     29929     33452     29929     33455     29929
     33458     29929     33461     29929     33464     29929     33467     29929
     33470     29929     33473     29929     33476     29929     33479     29929
     33482     29929     33485     29929     33488     29929     33491     29929
     33494     29929     33497     29929     33500     29929     33503     29929
     33506     29929     33509     29929     33512     29929     33515     29929
     33518     29929     33521     29929     33524     29929     33527     29929
     33530     29929     33533     29929     33536     29929     33539     29929
     33542     29929     33545     29929     33548     29929     33551     29929
     33554     29929     33557     29929     33560     29929     33563     29929
     33566     29929     33569     29929     33572     29929     33575     29929
     33578     29929     33581     29929     33584     29929     33587     29929
     33590     29929     33593     29929     33596     29929     33599     29929
     33602     29929     33605     29929     33608     29929     33611     29929
     33614     29929     33617     29929     33620     29929     33623     29929
     33626     29929     33629     29929     33632     29929     33635     29929
     33638     29929     33641     29929     33644     29929     33647     29929
     33650     29929     33653     29929     33656     29929     33659     29929
     33662     29929     33665     29929     33668     29929     33671     29929
     33674     29929     33677     29929     33680     29929     33683     29929
     33686     29929     33689     29929     33692     29929     33695     29929
     33698     29929     33701     29929     33704     29929     33707     29929
     33710     29929     33713     29929     33716     29929     33719     29929
     33722     29929     33725     29929     33728     29929     33731     29929
     33734     29929     33737     29929     33740     29929     33743     29929
     33746     29929     33749     29929     33752     29929     33755     29929
     33758     29929     33761     29929     33764     29929     33767     29929
     33770     29929     33773     29929     33776     29929     33779     29929
     33782     29929     33785     29929     33788     29929     33791     29929
     33794     29929     33797     29929     33800     29929     33803     29929
     33806     29929     33809     29929     33812     29929     33815     29929
     33818     29929     33821     29929     33824     29929     33827     29929
     33830     29929     33833     29929     33836     29929     33839     29929
     33842     29929     33845     29929     33848     29929     33851     29929
     33854     29929     33857     29929     33860     29929     33863     29929
     33866     29929     33869     29929     33872     29929     33875     29929
     33878     29929     33881     29929     33884     29929     33887     29929
     33890     29929     33893     29929     33896     29929     33899     29929
     33902     29929     33905     29929     33908     29929     33911     29929
     33914     29929     33917     29929     33920     29929     33923     29929
     33926     29929     33929     29929     33932     29929     33935     29929
     33938     29929     33941     29929     33944     29929     33947     29929
     33950     29929     33953     29929     33956     29929     33959     29929
     33962     29929     33965     29929     33968     29929     33971     29929
     33974     29929     33977     29929     33980     29929     33983     29929
     33986     29929     33989     29929     33992     29929     33995     29929
     33998     29929     34001     29929     34004     29929     34007     29929
     34010     29929     34013     29929     34016     29929     34019     29929
     34022     29929     34025     29929     34028     29929     34031     29929
     34034     29929     34037     29929     34040     29929     34043     29929
     34046     29929     34049     29929     34052     29929     34055     29929
     34058     29929     34061     29929     34064     29929     34067     29929
     34070     29929     34073     29929     34076     29929     34079     29929
     34082     29929     34085     29929     34088     29929     34091     29929
     34094     29929     34097     29929     34100     29929     34103     29929
     34106     29929     34109     29929     34112     29929     34115     29929
     34118     29929     34121     29929     34124     29929     34127     29929
     34130     29929     34133     29929     34136     29929     34139     29929
     34142     29929     34145     29929     34148     29929     34151     29929
     34154     29929     34157     29929     34160     29929     34163     29929
     34166     29929     34169     29929     34172     29929     34175     29929
     34178     29929     34181     29929     34184     29929     34187     29929
     34190     29929     34193     29929     34196     29929     34199     29929
     34202     29929     34205     29929     34208     29929     34211     29929
     34214     29929     34217     29929     34220     29929     34223     29929
     34226     29929     34229     29929     34232     29929     34235     29929
     34238     29929     34241     29929     34244     29929     34247     29929
     34250     29929     34253     29929     34256     29929     34259     29929
     34262     29929     34265     29929     34268     29929     34271     29929
     34274     29929     34277     29929     34280     29929     34283     29929
     34286     29929     34289     29929     34292     29929     34295     29929
     34298     29929     34301     29929     34304     29929     34307     29929
     34310     29929     34313     29929     34316     29929     34319     29929
     34322     29929     34325     29929     34328     29929     34331     29929
     34334     29929     34337     29929     34340     29929     34343     29929
     34346     29929     34349     29929     34352     29929     34355     29929
     34358     29929     34361     29929     34364     29929     34367     29929
     34370     29929     34373     29929     34376     29929     34379     29929
     34382     29929     34385     29929     34388     29929     34391     29929
     34394     29929     34397     29929     34400     29929     34403     29929
     34406     29929     34409     29929     34412     29929     34415     29929
     34418     29929     34421     29929     34424     29929     34427     29929
     34430     29929     34433     29929     34436     29929     34439     29929
     34442     29929     34445     29929     34448     29929     34451     29929
     34454     29929     34457     29929     34460     29929     34463     29929
     34466     29929     34469     29929     34472     29929     34475     29929
     34478     29929     34481     29929     34484     29929     34487     29929
     34490     29929     34493     29929     34496     29929     34499     29929
     34502     29929     34505     29929     34508     29929     34511     29929
     34514     29929     34517     29929     34520     29929     34523     29929
     34526     29929     34529     29929     34532     29929     34535     29929
     34538     29929     34541     29929     34544     29929     34547     29929
     34550     29929     34553     29929     34556     29929     34559     29929
     34562     29929     34565     29929     34568     29929     34571     29929
     34574     29929     34577     29929     34580     29929     34583     29929
     34586     29929     34589     29929     34592     29929     34595     29929
     34598     29929     34601     29929     34604     29929     34607     29929
     34610     29929     34613     29929     34616     29929     34619     29929
     34622     29929     34625     29929     34628     29929     34631     29929
     34634     29929     34637     29929     34640     29929     34643     29929
     34646     29929     34649     29929     34652     29929     34655     29929
     34658     29929     34661     29929     34664     29929     34667     29929
     34670     29929     34673     29929     34676     29929     34679     29929
     34682     29929     34685     29929     34688     29929     34691     29929
     34694     29929     34697     29929     34700     29929     34703     29929
     34706     29929     34709     29929     34712     29929     34715     29929
     34718     29929     34721     29929     34724     29929     34727     29929
     34730     29929     34733     29929     34736     29929     34739     29929
     34742     29929     34745     29929     34748     29929     34751     29929
     34754     29929     34757     29929     34760     29929     34763     29929
     34766     29929     34769     29929     34772     29929     34775     29929
     34778     29929     34781     29929     34784     29929     34787     29929
     34790     29929     34793     29929     34796     29929     34799     29929
     34802     29929     34805     29929     34808     29929     34811     29929
     34814     29929     34817     29929     34820     29929     34823     29929
     34826     29929     34829     29929     34832     29929     34835     29929
     34838     29929     34841     29929     34844     29929     34847     29929
     34850     29929     34853     29929     34856     29929     34859     29929
     34862     29929     34865     29929     34868     29929     34871     29929
     34874     29929     34877     29929     34880     29929     34883     29929
     34886     29929     34889     29929     34892     29929     34895     29929
     34898     29929     34901     29929     34904     29929     34907     29929
     34910     29929     34913     29929     34916     29929     34919     29929
     34922     29929     34925     29929     34928     29929     34931     29929
     34934     29929     34937     29929     34940     29929     34943     29929
     34946     29929     34949     29929     34952     29929     34955     29929
     34958     29929     34961     29929     34964     29929     34967     29929
     34970     29929     34973     29929     34976     29929     34979     29929
     34982     29929     34985     29929     34988     29929     34991     29929
     34994     29929     34997     29929     35000     29929     35003     29929
     35006     29929     35009     29929     35012     29929     35015     29929
     35018     29929     35021     29929     35024     29929     35027     29929
     35030     29929     35033     29929     35036     29929     35039     29929
     35042     29929     35045     29929     35048     29929     35051     29929
     35054     29929     35057     29929     35060     29929     35063     29929
     35066     29929     35069     29929     35072     29929     35075     29929
     35078     29929     35081     29929     35084     29929     35087     29929
     35090     29929     35093     29929     35096     29929     35099     29929
     35102     29929     35105     29929     35108     29929     35111     29929
     35114     29929     35117     29929     35120     29929     35123     29929
     35126     29929     35129     29929     35132     29929     35135     29929
     35138     29929     35141     29929     35144     29929     35147     29929
     35150     29929     35153     29929     35156     29929     35159     29929
     35162     29929     35165     29929     35168     29929     35171     29929
     35174     29929     35177     29929     35180     29929     35183     29929
     35186     29929     35189     29929     35192     29929     35195     29929
     35198     29929

         0 !NNB

         0         0         0         0         0         0         0         0
         0         0         0         0         0         0         0         0
         0         0         0         0         0         0         0         0
         0         0         0         0         0         0         0         0
         0         0         0         0         0         0         0         0
         0         0         0         0         0         0         0         0
         0         0         0         0         0         0         0         0
         0         0         0         0         0         0         0         0
         0         0         0         0         0         0         0         0
         0         0         0         0         0         0         0         0
         0         0         0         0         0         0         0         0
         0         0         0         0         0         0         0         0
         0         0         0         0         0         0         0         0
         0         0         0         0         0         0         0         0
         0         0         0         0         0         0         0         0
         0         0         0         0         0         0         0         0
         0         0         0         0         0         0         0         0
         0         0         0         0         0         0         0         0
         0         0         0         0         0         0         0         0
         0         0         0         0         0         0         0         0
         0         0         0         0         0         0         0         0
         0         0         0         0         0         0         0         0
         0         0         0         0         0         0         0         0
         0         0         0         0         0         0         0         0
         0         0         0         0         0         0         0         0
         0         0         0         0         0         0         0         0
         0         0         0         0         0         0         0         0
         0         0         0         0         0         0         0         0
         0         0         0         0         0         0         0         0
         0         0         0         0         0         0         0         0
         0         0         0         0         0         0         0         0
         0         0         0         0         0         0         0         0
         0         0         0         0         0         0         0         0
         0         0         0         0         0         0         0         0
         0         0         0         0         0         0         0         0
         0         0         0         0         0         0         0         0
         0         0         0         0         0         0         0         0
         0         0         0         0         0         0         0         0
         0         0         0         0         0         0         0         0
         0         0         0         0         0         0         0         0
         0         0         0         0         0         0         0         0
         0         0         0         0         0         0         0         0
         0         0         0         0         0         0         0         0
         0         0         0         0         0         0         0         0
         0         0         0         0         0         0         0         0
         0         0         0         0         0         0         0         0
         0         0         0         0         0         0         0         0
         0         0         0         0         0         0         0         0
         0         0         0         0         0         0         0         0
         0         0         0         0         0         0         0         0
         0         0         0         0         0         0         0         0
         0         0         0         0         0         0         0         0
         0         0         0         0         0         0         0         0
         0         0         0         0         0         0         0         0
         0         0         0         0         0         0         0         0
         0         0         0         0         0         0         0         0
         0         0         0         0         0         0         0         0
         0         0         0         0         0         0         0         0
         0         0         0         0         0         0         0         0
         0         0         0         0         0         0         0         0
         0         0         0         0         0         0         0         0
         0         0         0         0         0         0         0         0
         0         0         0         0         0         0         0         0
         0         0         0         0         0         0         0         0
         0         0         0         0         0         0         0         0
         0         0         0         0         0         0         0         0
         0         0         0         0         0         0         0         0
         0         0         0         0         0         0         0         0
         0         0         0         0         0         0         0         0
         0         0         0         0         0         0         0         0
         0         0         0         0         0         0         0         0
         0         0         0         0         0         0         0         0
         0         0         0         0         0         0         0         0
         0         0         0         0         0         0         0         0
         0         0         0         0         0         0         0         0
         0         0         0         0         0         0         0         0
         0         0         0         0         0         0         0         0
         0         0         0         0         0         0         0         0
         0         0         0         0         0         0         0         0
         0         0         0         0         0         0         0         0
         0         0         0         0         0         0         0         0
         0         0         0         0         0         0         0         0
         0         0         0         0         0         0         0         0
         0         0         0         0         0         0         0         0
         0         0         0         0         0         0         0         0
         0         0         0         0         0         0         0         0
         0         0         0         0         0         0         0         0
         0         0         0         0         0         0         0         0
         0         0         0         0         0         0         0         0
         0         0         0         0         0         0         0         0
         0         0         0         0         0         0         0         0
         0         0         0         0         0         0         0         0
         0         0         0         0         0         0         0         0
         0         0         0         0         0         0         0         0
         0         0         0         0         0         0         0         0
         0         0         0         0         0         0         0         0
         0         0         0         0         0         0         0         0
         0         0         0         0         0         0         0         0
         0         0         0         0         0         0         0         0
         0         0         0         0         0         0         0         0
         0         0         0         0         0         0         0         0
         0         0         0         0         0         0         0         0
         0         0         0         0         0         0         0         0
         0         0         0         0         0         0         0         0
         0         0         0         0         0         0         0         0
         0         0         0         0         0         0         0         0
         0         0         0         0         0         0         0         0
         0         0         0         0         0         0         0         0
         0         0         0         0         0         0         0         0
         0         0         0         0         0         0         0         0
         0         0         0         0         0         0         0         0
         0         0         0         0         0         0         0         0
         0         0         0         0         0         0         0         0
         0         0         0         0         0         0         0         0
         0         0         0         0         0         0         0         0
         0         0         0         0         0         0         0         0
         0         0         0         0         0         0         0         0
         0         0         0         0         0         0         0         0
         0         0         0         0         0         0         0         0
         0         0         0         0         0         0         0         0
         0         0         0         0         0         0         0         0
         0         0         0         0         0         0         0         0
         0         0         0         0         0         0         0         0
         0         0         0         0         0         0         0         0
         0         0         0         0         0         0         0         0
         0         0         0         0         0         0         0         0
         0         0         0         0         0         0         0         0
         0         0         0         0         0         0         0         0
         0         0         0         0         0         0         0         0
         0         0         0         0         0         0         0         0
         0         0         0         0         0         0         0         0
         0         0         0         0         0         0         0         0
         0         0         0         0         0         0         0         0
         0         0         0         0         0         0         0         0
         0         0         0         0         0         0         0         0
         0         0         0         0         0         0         0         0
         0         0         0         0         0         0         0         0
         0         0         0         0         0         0         0         0
         0         0         0         0         0         0         0         0
         0         0         0         0         0         0         0         0
         0         0         0         0         0         0         0         0
         0         0         0         0         0         0         0         0
         0         0         0         0         0         0         0         0
         0         0         0         0         0         0         0         0
         0         0         0         0         0         0         0         0
         0         0         0         0         0         0         0         0
         0         0         0         0         0         0         0         0
         0         0         0         0         0         0         0         0
         0         0         0         0         0         0         0         0
         0         0         0         0         0         0         0         0
         0         0         0         0         0         0         0         0
         0         0         0         0         0         0         0         0
         0         0         0         0         0         0         0         0
         0         0         0         0         0         0         0         0
         0         0         0         0         0         0         0         0
         0         0         0         0         0         0         0         0
         0         0         0         0         0         0         0         0
         0         0         0         0         0         0         0         0
         0         0         0         0         0         0         0         0
         0         0         0         0         0         0         0         0
         0         0         0         0         0         0         0         0
         0         0         0         0         0         0         0         0
         0         0         0         0         0         0         0         0
         0         0         0         0         0         0         0         0
         0         0         0         0         0         0         0         0
         0         0         0         0         0         0         0         0
         0         0         0         0         0         0         0         0
         0         0         0         0         0         0         0         0
         0         0         0         0         0         0         0         0
         0         0         0         0         0         0         0         0
         0         0         0         0         0         0         0         0
         0         0         0         0         0         0         0         0
         0         0         0         0         0         0         0         0
         0         0         0         0         0         0         0         0
         0         0         0         0         0         0         0         0
         0         0         0         0         0         0         0         0
         0         0         0         0         0         0         0         0
         0         0         0         0         0         0         0         0
         0         0         0         0         0         0         0         0
         0         0         0         0         0         0         0         0
         0         0         0         0         0         0         0         0
         0         0         0         0         0         0         0         0
         0         0         0         0         0         0         0         0
         0         0         0         0         0         0         0         0
         0         0         0         0         0         0         0         0
         0         0         0         0         0         0         0         0
         0         0         0         0         0         0         0         0
         0         0         0         0         0         0         0         0
         0         0         0         0         0         0         0         0
         0         0         0         0         0         0         0         0
         0         0         0         0         0         0         0         0
         0         0         0         0         0         0         0         0
         0         0         0         0         0         0         0         0
         0         0         0         0         0         0         0         0
         0         0         0         0         0         0         0         0
         0         0         0         0         0         0         0         0
         0         0         0         0         0         0         0         0
         0         0         0         0         0         0         0         0
         0         0         0         0         0         0         0         0
         0         0         0         0         0         0         0         0
         0         0         0         0         0         0         0         0
         0         0         0         0         0         0         0         0
         0         0         0         0         0         0         0         0
         0         0         0         0         0         0         0         0
         0         0         0         0         0         0         0         0
         0         0         0         0         0         0         0         0
         0         0         0         0         0         0         0         0
         0         0         0         0         0         0         0         0
         0         0         0         0         0         0         0         0
         0         0         0         0         0         0         0         0
         0         0         0         0         0         0         0         0
         0         0         0         0         0         0         0         0
         0         0         0         0         0         0         0         0
         0         0         0         0         0         0         0         0
         0         0         0         0         0         0         0         0
         0         0         0         0         0         0         0         0
         0         0         0         0         0         0         0         0
         0         0         0         0         0         0         0         0
         0         0         0         0         0         0         0         0
         0         0         0         0         0         0         0         0
         0         0         0         0         0         0         0         0
         0         0         0         0         0         0         0         0
         0         0         0         0         0         0         0         0
         0         0         0         0         0         0         0         0
         0         0         0         0         0         0         0         0
         0         0         0         0         0         0         0         0
         0         0         0         0         0         0         0         0
         0         0         0         0         0         0         0         0
         0         0         0         0         0         0         0         0
         0         0         0         0         0         0         0         0
         0         0         0         0         0         0         0         0
         0         0         0         0         0         0         0         0
         0         0         0         0         0         0         0         0
         0         0         0         0         0         0         0         0
         0         0         0         0         0         0         0         0
         0         0         0         0         0         0         0         0
         0         0         0         0         0         0         0         0
         0         0         0         0         0         0         0         0
         0         0         0         0         0         0         0         0
         0         0         0         0         0         0         0         0
         0         0         0         0         0         0         0         0
         0         0         0         0         0         0         0         0
         0         0         0         0         0         0         0         0
         0         0         0         0         0         0         0         0
         0         0         0         0         0         0         0         0
         0         0         0         0         0         0         0         0
         0         0         0         0         0         0         0         0
         0         0         0         0         0         0         0         0
         0         0         0         0         0         0         0         0
         0         0         0         0         0         0         0         0
         0         0         0         0         0         0         0         0
         0         0         0         0         0         0         0         0
         0         0         0         0         0         0         0         0
         0         0         0         0         0         0         0         0
         0         0         0         0         0         0         0         0
         0         0         0         0         0         0         0         0
         0         0         0         0         0         0         0         0
         0         0         0         0         0         0         0         0
         0         0         0         0         0         0         0         0
         0         0         0         0         0         0         0         0
         0         0         0         0         0         0         0         0
         0         0         0         0         0         0         0         0
         0         0         0         0         0         0         0         0
         0         0         0         0         0         0         0         0
         0         0         0         0         0         0         0         0
         0         0         0         0         0         0         0         0
         0         0         0         0         0         0         0         0
         0         0         0         0         0         0         0         0
         0         0         0         0         0         0         0         0
         0         0         0         0         0         0         0         0
         0         0         0         0         0         0         0         0
         0         0         0         0         0         0         0         0
         0         0         0         0         0         0         0         0
         0         0         0         0         0         0         0         0
         0         0         0         0         0         0         0         0
         0         0         0         0         0         0         0         0
         0         0         0         0         0         0         0         0
         0         0         0         0         0         0         0         0
         0         0         0         0         0         0         0         0
         0         0         0         0         0         0         0         0
         0         0         0         0         0         0         0         0
         0         0         0         0         0         0         0         0
         0         0         0         0         0         0         0         0
         0         0         0         0         0         0         0         0
         0         0         0         0         0         0         0         0
         0         0         0         0         0         0         0         0
         0         0         0         0         0         0         0         0
         0         0         0         0         0         0         0         0
         0         0         0         0         0         0         0         0
         0         0         0         0         0         0         0         0
         0         0         0         0         0         0         0         0
         0         0         0         0         0         0         0         0
         0         0         0         0         0         0         0         0
         0         0         0         0         0         0         0         0
         0         0         0         0         0         0         0         0
         0         0         0         0         0         0         0         0
         0         0         0         0         0         0         0         0
         0         0         0         0         0         0         0         0
         0         0         0         0         0         0         0         0
         0         0         0         0         0         0         0         0
         0         0         0         0         0         0         0         0
         0         0         0         0         0         0         0         0
         0         0         0         0         0         0         0         0
         0         0         0         0         0         0         0         0
         0         0         0         0         0         0         0         0
         0         0         0         0         0         0         0         0
         0         0         0         0         0         0         0         0
         0         0         0         0         0         0         0         0
         0         0         0         0         0         0         0         0
         0         0         0         0         0         0         0         0
         0         0         0         0         0         0         0         0
         0         0         0         0         0         0         0         0
         0         0         0         0         0         0         0         0
         0         0         0         0         0         0         0         0
         0         0         0         0         0         0         0         0
         0         0         0         0         0         0         0         0
         0         0         0         0         0         0         0         0
         0         0         0         0         0         0         0         0
         0         0         0         0         0         0         0         0
         0         0         0         0         0         0         0         0
         0         0         0         0         0         0         0         0
         0         0         0         0         0         0         0         0
         0         0         0         0         0         0         0         0
         0         0         0         0         0         0         0         0
         0         0         0         0         0         0         0         0
         0         0         0         0         0         0         0         0
         0         0         0         0         0         0         0         0
         0         0         0         0         0         0         0         0
         0         0         0         0         0         0         0         0
         0         0         0         0         0         0         0         0
         0         0         0         0         0         0         0         0
         0         0         0         0         0         0         0         0
         0         0         0         0         0         0         0         0
         0         0         0         0         0         0         0         0
         0         0         0         0         0         0         0         0
         0         0         0         0         0         0         0         0
         0         0         0         0         0         0         0         0
         0         0         0         0         0         0         0         0
         0         0         0         0         0         0         0         0
         0         0         0         0         0         0         0         0
         0         0         0         0         0         0         0         0
         0         0         0         0         0         0         0         0
         0         0         0         0         0         0         0         0
         0         0         0         0         0         0         0         0
         0         0         0         0         0         0         0         0
         0         0         0         0         0         0         0         0
         0         0         0         0         0         0         0         0
         0         0         0         0         0         0         0         0
         0         0         0         0         0         0         0         0
         0         0         0         0         0         0         0         0
         0         0         0         0         0         0         0         0
         0         0         0         0         0         0         0         0
         0         0         0         0         0         0         0         0
         0         0         0         0         0         0         0         0
         0         0         0         0         0         0         0         0
         0         0         0         0         0         0         0         0
         0         0         0         0         0         0         0         0
         0         0         0         0         0         0         0         0
         0         0         0         0         0         0         0         0
         0         0         0         0         0         0         0         0
         0         0         0         0         0         0         0         0
         0         0         0         0         0         0         0         0
         0         0         0         0         0         0         0         0
         0         0         0         0         0         0         0         0
         0         0         0         0         0         0         0         0
         0         0         0         0         0         0         0         0
         0         0         0         0         0         0         0         0
         0         0         0         0         0         0         0         0
         0         0         0         0         0         0         0         0
         0         0         0         0         0         0         0         0
         0         0         0         0         0         0         0         0
         0         0         0         0         0         0         0         0
         0         0         0         0         0         0         0         0
         0         0         0         0         0         0         0         0
         0         0         0         0         0         0         0         0
         0         0         0         0         0         0         0         0
         0         0         0         0         0         0         0         0
         0         0         0         0         0         0         0         0
         0         0         0         0         0         0         0         0
         0         0         0         0         0         0         0         0
         0         0         0         0         0         0         0         0
         0         0         0         0         0         0         0         0
         0         0         0         0         0         0         0         0
         0         0         0         0         0         0         0         0
         0         0         0         0         0         0         0         0
         0         0         0         0         0         0         0         0
         0         0         0         0         0         0         0         0
         0         0         0         0         0         0         0         0
         0         0         0         0         0         0         0         0
         0         0         0         0         0         0         0         0
         0         0         0         0         0         0         0         0
         0         0         0         0         0         0         0         0
         0         0         0         0         0         0         0         0
         0         0         0         0         0         0         0         0
         0         0         0         0         0         0         0         0
         0         0         0         0         0         0         0         0
         0         0         0         0         0         0         0         0
         0         0         0         0         0         0         0         0
         0         0         0         0         0         0         0         0
         0         0         0         0         0         0         0         0
         0         0         0         0         0         0         0         0
         0         0         0         0         0         0         0         0
         0         0         0         0         0         0         0         0
         0         0         0         0         0         0         0         0
         0         0         0         0         0         0         0         0
         0         0         0         0         0         0         0         0
         0         0         0         0         0         0         0         0
         0         0         0         0         0         0         0         0
         0         0         0         0         0         0         0         0
         0         0         0         0         0         0         0         0
         0         0         0         0         0         0         0         0
         0         0         0         0         0         0         0         0
         0         0         0         0         0         0         0         0
         0         0         0         0         0         0         0         0
         0         0         0         0         0         0         0         0
         0         0         0         0         0         0         0         0
         0         0         0         0         0         0         0         0
         0         0         0         0         0         0         0         0
         0         0         0         0         0         0         0         0
         0         0         0         0         0         0         0         0
         0         0         0         0         0         0         0         0
         0         0         0         0         0         0         0         0
         0         0         0         0         0         0         0         0
         0         0         0         0         0         0         0         0
         0         0         0         0         0         0         0         0
         0         0         0         0         0         0         0         0
         0         0         0         0         0         0         0         0
         0         0         0         0         0         0         0         0
         0         0         0         0         0         0         0         0
         0         0         0         0         0         0         0         0
         0         0         0         0         0         0         0         0
         0         0         0         0         0         0         0         0
         0         0         0         0         0         0         0         0
         0         0         0         0         0         0         0         0
         0         0         0         0         0         0         0         0
         0         0         0         0         0         0         0         0
         0         0         0         0         0         0         0         0
         0         0         0         0         0         0         0         0
         0         0         0         0         0         0         0         0
         0         0         0         0         0         0         0         0
         0         0         0         0         0         0         0         0
         0         0         0         0         0         0         0         0
         0         0         0         0         0         0         0         0
         0         0         0         0         0         0         0         0
         0         0         0         0         0         0         0         0
         0         0         0         0         0         0         0         0
         0         0         0         0         0         0         0         0
         0         0         0         0         0         0         0         0
         0         0         0         0         0         0         0         0
         0         0         0         0         0         0         0         0
         0         0         0         0         0         0         0         0
         0         0         0         0         0         0         0         0
         0         0         0         0         0         0         0         0
         0         0         0         0         0         0         0         0
         0         0         0         0         0         0         0         0
         0         0         0         0         0         0         0         0
         0         0         0         0         0         0         0         0
         0         0         0         0         0         0         0         0
         0         0         0         0         0         0         0         0
         0         0         0         0         0         0         0         0
         0         0         0         0         0         0         0         0
         0         0         0         0         0         0         0         0
         0         0         0         0         0         0         0         0
         0         0         0         0         0         0         0         0
         0         0         0         0         0         0         0         0
         0         0         0         0         0         0         0         0
         0         0         0         0         0         0         0         0
         0         0         0         0         0         0         0         0
         0         0         0         0         0         0         0         0
         0         0         0         0         0         0         0         0
         0         0         0         0         0         0         0         0
         0         0         0         0         0         0         0         0
         0         0         0         0         0         0         0         0
         0         0         0         0         0         0         0         0
         0         0         0         0         0         0         0         0
         0         0         0         0         0         0         0         0
         0         0         0         0         0         0         0         0
         0         0         0         0         0         0         0         0
         0         0         0         0         0         0         0         0
         0         0         0         0         0         0         0         0
         0         0         0         0         0         0         0         0
         0         0         0         0         0         0         0         0
         0         0         0         0         0         0         0         0
         0         0         0         0         0         0         0         0
         0         0         0         0         0         0         0         0
         0         0         0         0         0         0         0         0
         0         0         0         0         0         0         0         0
         0         0         0         0         0         0         0         0
         0         0         0         0         0         0         0         0
         0         0         0         0         0         0         0         0
         0         0         0         0         0         0         0         0
         0         0         0         0         0         0         0         0
         0         0         0         0         0         0         0         0
         0         0         0         0         0         0         0         0
         0         0         0         0         0         0         0         0
         0         0         0         0         0         0         0         0
         0         0         0         0         0         0         0         0
         0         0         0         0         0         0         0         0
         0         0         0         0         0         0         0         0
         0         0         0         0         0         0         0         0
         0         0         0         0         0         0         0         0
         0         0         0         0         0         0         0         0
         0         0         0         0         0         0         0         0
         0         0         0         0         0         0         0         0
         0         0         0         0         0         0         0         0
         0         0         0         0         0         0         0         0
         0         0         0         0         0         0         0         0
         0         0         0         0         0         0         0         0
         0         0         0         0         0         0         0         0
         0         0         0         0         0         0         0         0
         0         0         0         0         0         0         0         0
         0         0         0         0         0         0         0         0
         0         0         0         0         0         0         0         0
         0         0         0         0         0         0         0         0
         0         0         0         0         0         0         0         0
         0         0         0         0         0         0         0         0
         0         0         0         0         0         0         0         0
         0         0         0         0         0         0         0         0
         0         0         0         0         0         0         0         0
         0         0         0         0         0         0         0         0
         0         0         0         0         0         0         0         0
         0         0         0         0         0         0         0         0
         0         0         0         0         0         0         0         0
         0         0         0         0         0         0         0         0
         0         0         0         0         0         0         0         0
         0         0         0         0         0         0         0         0
         0         0         0         0         0         0         0         0
         0         0         0         0         0         0         0         0
         0         0         0         0         0         0         0         0
         0         0         0         0         0         0         0         0
         0         0         0         0         0         0         0         0
         0         0         0         0         0         0         0         0
         0         0         0         0         0         0         0         0
         0         0         0         0         0         0         0         0
         0         0         0         0         0         0         0         0
         0         0         0         0         0         0         0         0
         0         0         0         0         0         0         0         0
         0         0         0         0         0         0         0         0
         0         0         0         0         0         0         0         0
         0         0         0         0         0         0         0         0
         0         0         0         0         0         0         0         0
         0         0         0         0         0         0         0         0
         0         0         0         0         0         0         0         0
         0         0         0         0         0         0         0         0
         0         0         0         0         0         0         0         0
         0         0         0         0         0         0         0         0
         0         0         0         0         0         0         0         0
         0         0         0         0         0         0         0         0
         0         0         0         0         0         0         0         0
         0         0         0         0         0         0         0         0
         0         0         0         0         0         0         0         0
         0         0         0         0         0         0         0         0
         0         0         0         0         0         0         0         0
         0         0         0         0         0         0         0         0
         0         0         0         0         0         0         0         0
         0         0         0         0         0         0         0         0
         0         0         0         0         0         0         0         0
         0         0         0         0         0         0         0         0
         0         0         0         0         0         0         0         0
         0         0         0         0         0         0         0         0
         0         0         0         0         0         0         0         0
         0         0         0         0         0         0         0         0
         0         0         0         0         0         0         0         0
         0         0         0         0         0         0         0         0
         0         0         0         0         0         0         0         0
         0         0         0         0         0         0         0         0
         0         0         0         0         0         0         0         0
         0         0         0         0         0         0         0         0
         0         0         0         0         0         0         0         0
         0         0         0         0         0         0         0         0
         0         0         0         0         0         0         0         0
         0         0         0         0         0         0         0         0
         0         0         0         0         0         0         0         0
         0         0         0         0         0         0         0         0
         0         0         0         0         0         0         0         0
         0         0         0         0         0         0         0         0
         0         0         0         0         0         0         0         0
         0         0         0         0         0         0         0         0
         0         0         0         0         0         0         0         0
         0         0         0         0         0         0         0         0
         0         0         0         0         0         0         0         0
         0         0         0         0         0         0         0         0
         0         0         0         0         0         0         0         0
         0         0         0         0         0         0         0         0
         0         0         0         0         0         0         0         0
         0         0         0         0         0         0         0         0
         0         0         0         0         0         0         0         0
         0         0         0         0         0         0         0         0
         0         0         0         0         0         0         0         0
         0         0         0         0         0         0         0         0
         0         0         0         0         0         0         0         0
         0         0         0         0         0         0         0         0
         0         0         0         0         0         0         0         0
         0         0         0         0         0         0         0         0
         0         0         0         0         0         0         0         0
         0         0         0         0         0         0         0         0
         0         0         0         0         0         0         0         0
         0         0         0         0         0         0         0         0
         0         0         0         0         0         0         0         0
         0         0         0         0         0         0         0         0
         0         0         0         0         0         0         0         0
         0         0         0         0         0         0         0         0
         0         0         0         0         0         0         0         0
         0         0         0         0         0         0         0         0
         0         0         0         0         0         0         0         0
         0         0         0         0         0         0         0         0
         0         0         0         0         0         0         0         0
         0         0         0         0         0         0         0         0
         0         0         0         0         0         0         0         0
         0         0         0         0         0         0         0         0
         0         0         0         0         0         0         0         0
         0         0         0         0         0         0         0         0
         0         0         0         0         0         0         0         0
         0         0         0         0         0         0         0         0
         0         0         0         0         0         0         0         0
         0         0         0         0         0         0         0         0
         0         0         0         0         0         0         0         0
         0         0         0         0         0         0         0         0
         0         0         0         0         0         0         0         0
         0         0         0         0         0         0         0         0
         0         0         0         0         0         0         0         0
         0         0         0         0         0         0         0         0
         0         0         0         0         0         0         0         0
         0         0         0         0         0         0         0         0
         0         0         0         0         0         0         0         0
         0         0         0         0         0         0         0         0
         0         0         0         0         0         0         0         0
         0         0         0         0         0         0         0         0
         0         0         0         0         0         0         0         0
         0         0         0         0         0         0         0         0
         0         0         0         0         0         0         0         0
         0         0         0         0         0         0         0         0
         0         0         0         0         0         0         0         0
         0         0         0         0         0         0         0         0
         0         0         0         0         0         0         0         0
         0         0         0         0         0         0         0         0
         0         0         0         0         0         0         0         0
         0         0         0         0         0         0         0         0
         0         0         0         0         0         0         0         0
         0         0         0         0         0         0         0         0
         0         0         0         0         0         0         0         0
         0         0         0         0         0         0         0         0
         0         0         0         0         0         0         0         0
         0         0         0         0         0         0         0         0
         0         0         0         0         0         0         0         0
         0         0         0         0         0         0         0         0
         0         0         0         0         0         0         0         0
         0         0         0         0         0         0         0         0
         0         0         0         0         0         0         0         0
         0         0         0         0         0         0         0         0
         0         0         0         0         0         0         0         0
         0         0         0         0         0         0         0         0
         0         0         0         0         0         0         0         0
         0         0         0         0         0         0         0         0
         0         0         0         0         0         0         0         0
         0         0         0         0         0         0         0         0
         0         0         0         0         0         0         0         0
         0         0         0         0         0         0         0         0
         0         0         0         0         0         0         0         0
         0         0         0         0         0         0         0         0
         0         0         0         0         0         0         0         0
         0         0         0         0         0         0         0         0
         0         0         0         0         0         0         0         0
         0         0         0         0         0         0         0         0
         0         0         0         0         0         0         0         0
         0         0         0         0         0         0         0         0
         0         0         0         0         0         0         0         0
         0         0         0         0         0         0         0         0
         0         0         0         0         0         0         0         0
         0         0         0         0         0         0         0         0
         0         0         0         0         0         0         0         0
         0         0         0         0         0         0         0         0
         0         0         0         0         0         0         0         0
         0         0         0         0         0         0         0         0
         0         0         0         0         0         0         0         0
         0         0         0         0         0         0         0         0
         0         0         0         0         0         0         0         0
         0         0         0         0         0         0         0         0
         0         0         0         0         0         0         0         0
         0         0         0         0         0         0         0         0
         0         0         0         0         0         0         0         0
         0         0         0         0         0         0         0         0
         0         0         0         0         0         0         0         0
         0         0         0         0         0         0         0         0
         0         0         0         0         0         0         0         0
         0         0         0         0         0         0         0         0
         0         0         0         0         0         0         0         0
         0         0         0         0         0         0         0         0
         0         0         0         0         0         0         0         0
         0         0         0         0         0         0         0         0
         0         0         0         0         0         0         0         0
         0         0         0         0         0         0         0         0
         0         0         0         0         0         0         0         0
         0         0         0         0         0         0         0         0
         0         0         0         0         0         0         0         0
         0         0         0         0         0         0         0         0
         0         0         0         0         0         0         0         0
         0         0         0         0         0         0         0         0
         0         0         0         0         0         0         0         0
         0         0         0         0         0         0         0         0
         0         0         0         0         0         0         0         0
         0         0         0         0         0         0         0         0
         0         0         0         0         0         0         0         0
         0         0         0         0         0         0         0         0
         0         0         0         0         0         0         0         0
         0         0         0         0         0         0         0         0
         0         0         0         0         0         0         0         0
         0         0         0         0         0         0         0         0
         0         0         0         0         0         0         0         0
         0         0         0         0         0         0         0         0
         0         0         0         0         0         0         0         0
         0         0         0         0         0         0         0         0
         0         0         0         0         0         0         0         0
         0         0         0         0         0         0         0         0
         0         0         0         0         0         0         0         0
         0         0         0         0         0         0         0         0
         0         0         0         0         0         0         0         0
         0         0         0         0         0         0         0         0
         0         0         0         0         0         0         0         0
         0         0         0         0         0         0         0         0
         0         0         0         0         0         0         0         0
         0         0         0         0         0         0         0         0
         0         0         0         0         0         0         0         0
         0         0         0         0         0         0         0         0
         0         0         0         0         0         0         0         0
         0         0         0         0         0         0         0         0
         0         0         0         0         0         0         0         0
         0         0         0         0         0         0         0         0
         0         0         0         0         0         0         0         0
         0         0         0         0         0         0         0         0
         0         0         0         0         0         0         0         0
         0         0         0         0         0         0         0         0
         0         0         0         0         0         0         0         0
         0         0         0         0         0         0         0         0
         0         0         0         0         0         0         0         0
         0         0         0         0         0         0         0         0
         0         0         0         0         0         0         0         0
         0         0         0         0         0         0         0         0
         0         0         0         0         0         0         0         0
         0         0         0         0         0         0         0         0
         0         0         0         0         0         0         0         0
         0         0         0         0         0         0         0         0
         0         0         0         0         0         0         0         0
         0         0         0         0         0         0         0         0
         0         0         0         0         0         0         0         0
         0         0         0         0         0         0         0         0
         0         0         0         0         0         0         0         0
         0         0         0         0         0         0         0         0
         0         0         0         0         0         0         0         0
         0         0         0         0         0         0         0         0
         0         0         0         0         0         0         0         0
         0         0         0         0         0         0         0         0
         0         0         0         0         0         0         0         0
         0         0         0         0         0         0         0         0
         0         0         0         0         0         0         0         0
         0         0         0         0         0         0         0         0
         0         0         0         0         0         0         0         0
         0         0         0         0         0         0         0         0
         0         0         0         0         0         0         0         0
         0         0         0         0         0         0         0         0
         0         0         0         0         0         0         0         0
         0         0         0         0         0         0         0         0
         0         0         0         0         0         0         0         0
         0         0         0         0         0         0         0         0
         0         0         0         0         0         0         0         0
         0         0         0         0         0         0         0         0
         0         0         0         0         0         0         0         0
         0         0         0         0         0         0         0         0
         0         0         0         0         0         0         0         0
         0         0         0         0         0         0         0         0
         0         0         0         0         0         0         0         0
         0         0         0         0         0         0         0         0
         0         0         0         0         0         0         0         0
         0         0         0         0         0         0         0         0
         0         0         0         0         0         0         0         0
         0         0         0         0         0         0         0         0
         0         0         0         0         0         0         0         0
         0         0         0         0         0         0         0         0
         0         0         0         0         0         0         0         0
         0         0         0         0         0         0         0         0
         0         0         0         0         0         0         0         0
         0         0         0         0         0         0         0         0
         0         0         0         0         0         0         0         0
         0         0         0         0         0         0         0         0
         0         0         0         0         0         0         0         0
         0         0         0         0         0         0         0         0
         0         0         0         0         0         0         0         0
         0         0         0         0         0         0         0         0
         0         0         0         0         0         0         0         0
         0         0         0         0         0         0         0         0
         0         0         0         0         0         0         0         0
         0         0         0         0         0         0         0         0
         0         0         0         0         0         0         0         0
         0         0         0         0         0         0         0         0
         0         0         0         0         0         0         0         0
         0         0         0         0         0         0         0         0
         0         0         0         0         0         0         0         0
         0         0         0         0         0         0         0         0
         0         0         0         0         0         0         0         0
         0         0         0         0         0         0         0         0
         0         0         0         0         0         0         0         0
         0         0         0         0         0         0         0         0
         0         0         0         0         0         0         0         0
         0         0         0         0         0         0         0         0
         0         0         0         0         0         0         0         0
         0         0         0         0         0         0         0         0
         0         0         0         0         0         0         0         0
         0         0         0         0         0         0         0         0
         0         0         0         0         0         0         0         0
         0         0         0         0         0         0         0         0
         0         0         0         0         0         0         0         0
         0         0         0         0         0         0         0         0
         0         0         0         0         0         0         0         0
         0         0         0         0         0         0         0         0
         0         0         0         0         0         0         0         0
         0         0         0         0         0         0         0         0
         0         0         0         0         0         0         0         0
         0         0         0         0         0         0         0         0
         0         0         0         0         0         0         0         0
         0         0         0         0         0         0         0         0
         0         0         0         0         0         0         0         0
         0         0         0         0         0         0         0         0
         0         0         0         0         0         0         0         0
         0         0         0         0         0         0         0         0
         0         0         0         0         0         0         0         0
         0         0         0         0         0         0         0         0
         0         0         0         0         0         0         0         0
         0         0         0         0         0         0         0         0
         0         0         0         0         0         0         0         0
         0         0         0         0         0         0         0         0
         0         0         0         0         0         0         0         0
         0         0         0         0         0         0         0         0
         0         0         0         0         0         0         0         0
         0         0         0         0         0         0         0         0
         0         0         0         0         0         0         0         0
         0         0         0         0         0         0         0         0
         0         0         0         0         0         0         0         0
         0         0         0         0         0         0         0         0
         0         0         0         0         0         0         0         0
         0         0         0         0         0         0         0         0
         0         0         0         0         0         0         0         0
         0         0         0         0         0         0         0         0
         0         0         0         0         0         0         0         0
         0         0         0         0         0         0         0         0
         0         0         0         0         0         0         0         0
         0         0         0         0         0         0         0         0
         0         0         0         0         0         0         0         0
         0         0         0         0         0         0         0         0
         0         0         0         0         0         0         0         0
         0         0         0         0         0         0         0         0
         0         0         0         0         0         0         0         0
         0         0         0         0         0         0         0         0
         0         0         0         0         0         0         0         0
         0         0         0         0         0         0         0         0
         0         0         0         0         0         0         0         0
         0         0         0         0         0         0         0         0
         0         0         0         0         0         0         0         0
         0         0         0         0         0         0         0         0
         0         0         0         0         0         0         0         0
         0         0         0         0         0         0         0         0
         0         0         0         0         0         0         0         0
         0         0         0         0         0         0         0         0
         0         0         0         0         0         0         0         0
         0         0         0         0         0         0         0         0
         0         0         0         0         0         0         0         0
         0         0         0         0         0         0         0         0
         0         0         0         0         0         0         0         0
         0         0         0         0         0         0         0         0
         0         0         0         0         0         0         0         0
         0         0         0         0         0         0         0         0
         0         0         0         0         0         0         0         0
         0         0         0         0         0         0         0         0
         0         0         0         0         0         0         0         0
         0         0         0         0         0         0         0         0
         0         0         0         0         0         0         0         0
         0         0         0         0         0         0         0         0
         0         0         0         0         0         0         0         0
         0         0         0         0         0         0         0         0
         0         0         0         0         0         0         0         0
         0         0         0         0         0         0         0         0
         0         0         0         0         0         0         0         0
         0         0         0         0         0         0         0         0
         0         0         0         0         0         0         0         0
         0         0         0         0         0         0         0         0
         0         0         0         0         0         0         0         0
         0         0         0         0         0         0         0         0
         0         0         0         0         0         0         0         0
         0         0         0         0         0         0         0         0
         0         0         0         0         0         0         0         0
         0         0         0         0         0         0         0         0
         0         0         0         0         0         0         0         0
         0         0         0         0         0         0         0         0
         0         0         0         0         0         0         0         0
         0         0         0         0         0         0         0         0
         0         0         0         0         0         0         0         0
         0         0         0         0         0         0         0         0
         0         0         0         0         0         0         0         0
         0         0         0         0         0         0         0         0
         0         0         0         0         0         0         0         0
         0         0         0         0         0         0         0         0
         0         0         0         0         0         0         0         0
         0         0         0         0         0         0         0         0
         0         0         0         0         0         0         0         0
         0         0         0         0         0         0         0         0
         0         0         0         0         0         0         0         0
         0         0         0         0         0         0         0         0
         0         0         0         0         0         0         0         0
         0         0         0         0         0         0         0         0
         0         0         0         0         0         0         0         0
         0         0         0         0         0         0         0         0
         0         0         0         0         0         0         0         0
         0         0         0         0         0         0         0         0
         0         0         0         0         0         0         0         0
         0         0         0         0         0         0         0         0
         0         0         0         0         0         0         0         0
         0         0         0         0         0         0         0         0
         0         0         0         0         0         0         0         0
         0         0         0         0         0         0         0         0
         0         0         0         0         0         0         0         0
         0         0         0         0         0         0         0         0
         0         0         0         0         0         0         0         0
         0         0         0         0         0         0         0         0
         0         0         0         0         0         0         0         0
         0         0         0         0         0         0         0         0
         0         0         0         0         0         0         0         0
         0         0         0         0         0         0         0         0
         0         0         0         0         0         0         0         0
         0         0         0         0         0         0         0         0
         0         0         0         0         0         0         0         0
         0         0         0         0         0         0         0         0
         0         0         0         0         0         0         0         0
         0         0         0         0         0         0         0         0
         0         0         0         0         0         0         0         0
         0         0         0         0         0         0         0         0
         0         0         0         0         0         0         0         0
         0         0         0         0         0         0         0         0
         0         0         0         0         0         0         0         0
         0         0         0         0         0         0         0         0
         0         0         0         0         0         0         0         0
         0         0         0         0         0         0         0         0
         0         0         0         0         0         0         0         0
         0         0         0         0         0         0         0         0
         0         0         0         0         0         0         0         0
         0         0         0         0         0         0         0         0
         0         0         0         0         0         0         0         0
         0         0         0         0         0         0         0         0
         0         0         0         0         0         0         0         0
         0         0         0         0         0         0         0         0
         0         0         0         0         0         0         0         0
         0         0         0         0         0         0         0         0
         0         0         0         0         0         0         0         0
         0         0         0         0         0         0         0         0
         0         0         0         0         0         0         0         0
         0         0         0         0         0         0         0         0
         0         0         0         0         0         0         0         0
         0         0         0         0         0         0         0         0
         0         0         0         0         0         0         0         0
         0         0         0         0         0         0         0         0
         0         0         0         0         0         0         0         0
         0         0         0         0         0         0         0         0
         0         0         0         0         0         0         0         0
         0         0         0         0         0         0         0         0
         0         0         0         0         0         0         0         0
         0         0         0         0         0         0         0         0
         0         0         0         0         0         0         0         0
         0         0         0         0         0         0         0         0
         0         0         0         0         0         0         0         0
         0         0         0         0         0         0         0         0
         0         0         0         0         0         0         0         0
         0         0         0         0         0         0         0         0
         0         0         0         0         0         0         0         0
         0         0         0         0         0         0         0         0
         0         0         0         0         0         0         0         0
         0         0         0         0         0         0         0         0
         0         0         0         0         0         0         0         0
         0         0         0         0         0         0         0         0
         0         0         0         0         0         0         0         0
         0         0         0         0         0         0         0         0
         0         0         0         0         0         0         0         0
         0         0         0         0         0         0         0         0
         0         0         0         0         0         0         0         0
         0         0         0         0         0         0         0         0
         0         0         0         0         0         0         0         0
         0         0         0         0         0         0         0         0
         0         0         0         0         0         0         0         0
         0         0         0         0         0         0         0         0
         0         0         0         0         0         0         0         0
         0         0         0         0         0         0         0         0
         0         0         0         0         0         0         0         0
         0         0         0         0         0         0         0         0
         0         0         0         0         0         0         0         0
         0         0         0         0         0         0         0         0
         0         0         0         0         0         0         0         0
         0         0         0         0         0         0         0         0
         0         0         0         0         0         0         0         0
         0         0         0         0         0         0         0         0
         0         0         0         0         0         0         0         0
         0         0         0         0         0         0         0         0
         0         0         0         0         0         0         0         0
         0         0         0         0         0         0         0         0
         0         0         0         0         0         0         0         0
         0         0         0         0         0         0         0         0
         0         0         0         0         0         0         0         0
         0         0         0         0         0         0         0         0
         0         0         0         0         0         0         0         0
         0         0         0         0         0         0         0         0
         0         0         0         0         0         0         0         0
         0         0         0         0         0         0         0         0
         0         0         0         0         0         0         0         0
         0         0         0         0         0         0         0         0
         0         0         0         0         0         0         0         0
         0         0         0         0         0         0         0         0
         0         0         0         0         0         0         0         0
         0         0         0         0         0         0         0         0
         0         0         0         0         0         0         0         0
         0         0         0         0         0         0         0         0
         0         0         0         0         0         0         0         0
         0         0         0         0         0         0         0         0
         0         0         0         0         0         0         0         0
         0         0         0         0         0         0         0         0
         0         0         0         0         0         0         0         0
         0         0         0         0         0         0         0         0
         0         0         0         0         0         0         0         0
         0         0         0         0         0         0         0         0
         0         0         0         0         0         0         0         0
         0         0         0         0         0         0         0         0
         0         0         0         0         0         0         0         0
         0         0         0         0         0         0         0         0
         0         0         0         0         0         0         0         0
         0         0         0         0         0         0         0         0
         0         0         0         0         0         0         0         0
         0         0         0         0         0         0         0         0
         0         0         0         0         0         0         0         0
         0         0         0         0         0         0         0         0
         0         0         0         0         0         0         0         0
         0         0         0         0         0         0         0         0
         0         0         0         0         0         0         0         0
         0         0         0         0         0         0         0         0
         0         0         0         0         0         0         0         0
         0         0         0         0         0         0         0         0
         0         0         0         0         0         0         0         0
         0         0         0         0         0         0         0         0
         0         0         0         0         0         0         0         0
         0         0         0         0         0         0         0         0
         0         0         0         0         0         0         0         0
         0         0         0         0         0         0         0         0
         0         0         0         0         0         0         0         0
         0         0         0         0         0         0         0         0
         0         0         0         0         0         0         0         0
         0         0         0         0         0         0         0         0
         0         0         0         0         0         0         0         0
         0         0         0         0         0         0         0         0
         0         0         0         0         0         0         0         0
         0         0         0         0         0         0         0         0
         0         0         0         0         0         0         0         0
         0         0         0         0         0         0         0         0
         0         0         0         0         0         0         0         0
         0         0         0         0         0         0         0         0
         0         0         0         0         0         0         0         0
         0         0         0         0         0         0         0         0
         0         0         0         0         0         0         0         0
         0         0         0         0         0         0         0         0
         0         0         0         0         0         0         0         0
         0         0         0         0         0         0         0         0
         0         0         0         0         0         0         0         0
         0         0         0         0         0         0         0         0
         0         0         0         0         0         0         0         0
         0         0         0         0         0         0         0         0
         0         0         0         0         0         0         0         0
         0         0         0         0         0         0         0         0
         0         0         0         0         0         0         0         0
         0         0         0         0         0         0         0         0
         0         0         0         0         0         0         0         0
         0         0         0         0         0         0         0         0
         0         0         0         0         0         0         0         0
         0         0         0         0         0         0         0         0
         0         0         0         0         0         0         0         0
         0         0         0         0         0         0         0         0
         0         0         0         0         0         0         0         0
         0         0         0         0         0         0         0         0
         0         0         0         0         0         0         0         0
         0         0         0         0         0         0         0         0
         0         0         0         0         0         0         0         0
         0         0         0         0         0         0         0         0
         0         0         0         0         0         0         0         0
         0         0         0         0         0         0         0         0
         0         0         0         0         0         0         0         0
         0         0         0         0         0         0         0         0
         0         0         0         0         0         0         0         0
         0         0         0         0         0         0         0         0
         0         0         0         0         0         0         0         0
         0         0         0         0         0         0         0         0
         0         0         0         0         0         0         0         0
         0         0         0         0         0         0         0         0
         0         0         0         0         0         0         0         0
         0         0         0         0         0         0         0         0
         0         0         0         0         0         0         0         0
         0         0         0         0         0         0         0         0
         0         0         0         0         0         0         0         0
         0         0         0         0         0         0         0         0
         0         0         0         0         0         0         0         0
         0         0         0         0         0         0         0         0
         0         0         0         0         0         0         0         0
         0         0         0         0         0         0         0         0
         0         0         0         0         0         0         0         0
         0         0         0         0         0         0         0         0
         0         0         0         0         0         0         0         0
         0         0         0         0         0         0         0         0
         0         0         0         0         0         0         0         0
         0         0         0         0         0         0         0         0
         0         0         0         0         0         0         0         0
         0         0         0         0         0         0         0         0
         0         0         0         0         0         0         0         0
         0         0         0         0         0         0         0         0
         0         0         0         0         0         0         0         0
         0         0         0         0         0         0         0         0
         0         0         0         0         0         0         0         0
         0         0         0         0         0         0         0         0
         0         0         0         0         0         0         0         0
         0         0         0         0         0         0         0         0
         0         0         0         0         0         0         0         0
         0         0         0         0         0         0         0         0
         0         0         0         0         0         0         0         0
         0         0         0         0         0         0         0         0
         0         0         0         0         0         0         0         0
         0         0         0         0         0         0         0         0
         0         0         0         0         0         0         0         0
         0         0         0         0         0         0         0         0
         0         0         0         0         0         0         0         0
         0         0         0         0         0         0         0         0
         0         0         0         0         0         0         0         0
         0         0         0         0         0         0         0         0
         0         0         0         0         0         0         0         0
         0         0         0         0         0         0         0         0
         0         0         0         0         0         0         0         0
         0         0         0         0         0         0         0         0
         0         0         0         0         0         0         0         0
         0         0         0         0         0         0         0         0
         0         0         0         0         0         0         0         0
         0         0         0         0         0         0         0         0
         0         0         0         0         0         0         0         0
         0         0         0         0         0         0         0         0
         0         0         0         0         0         0         0         0
         0         0         0         0         0         0         0         0
         0         0         0         0         0         0         0         0
         0         0         0         0         0         0         0         0
         0         0         0         0         0         0         0         0
         0         0         0         0         0         0         0         0
         0         0         0         0         0         0         0         0
         0         0         0         0         0         0         0         0
         0         0         0         0         0         0         0         0
         0         0         0         0         0         0         0         0
         0         0         0         0         0         0         0         0
         0         0         0         0         0         0         0         0
         0         0         0         0         0         0         0         0
         0         0         0         0         0         0         0         0
         0         0         0         0         0         0         0         0
         0         0         0         0         0         0         0         0
         0         0         0         0         0         0         0         0
         0         0         0         0         0         0         0         0
         0         0         0         0         0         0         0         0
         0         0         0         0         0         0         0         0
         0         0         0         0         0         0         0         0
         0         0         0         0         0         0         0         0
         0         0         0         0         0         0         0         0
         0         0         0         0         0         0         0         0
         0         0         0         0         0         0         0         0
         0         0         0         0         0         0         0         0
         0         0         0         0         0         0         0         0
         0         0         0         0         0         0         0         0
         0         0         0         0         0         0         0         0
         0         0         0         0         0         0         0         0
         0         0         0         0         0         0         0         0
         0         0         0         0         0         0         0         0
         0         0         0         0         0         0         0         0
         0         0         0         0         0         0         0         0
         0         0         0         0         0         0         0         0
         0         0         0         0         0         0         0         0
         0         0         0         0         0         0         0         0
         0         0         0         0         0         0         0         0
         0         0         0         0         0         0         0         0
         0         0         0         0         0         0         0         0
         0         0         0         0         0         0         0         0
         0         0         0         0         0         0         0         0
         0         0         0         0         0         0         0         0
         0         0         0         0         0         0         0         0
         0         0         0         0         0         0         0         0
         0         0         0         0         0         0         0         0
         0         0         0         0         0         0         0         0
         0         0         0         0         0         0         0         0
         0         0         0         0         0         0         0         0
         0         0         0         0         0         0         0         0
         0         0         0         0         0         0         0         0
         0         0         0         0         0         0         0         0
         0         0         0         0         0         0         0         0
         0         0         0         0         0         0         0         0
         0         0         0         0         0         0         0         0
         0         0         0         0         0         0         0         0
         0         0         0         0         0         0         0         0
         0         0         0         0         0         0         0         0
         0         0         0         0         0         0         0         0
         0         0         0         0         0         0         0         0
         0         0         0         0         0         0         0         0
         0         0         0         0         0         0         0         0
         0         0         0         0         0         0         0         0
         0         0         0         0         0         0         0         0
         0         0         0         0         0         0         0         0
         0         0         0         0         0         0         0         0
         0         0         0         0         0         0         0         0
         0         0         0         0         0         0         0         0
         0         0         0         0         0         0         0         0
         0         0         0         0         0         0         0         0
         0         0         0         0         0         0         0         0
         0         0         0         0         0         0         0         0
         0         0         0         0         0         0         0         0
         0         0         0         0         0         0         0         0
         0         0         0         0         0         0         0         0
         0         0         0         0         0         0         0         0
         0         0         0         0         0         0         0         0
         0         0         0         0         0         0         0         0
         0         0         0         0         0         0         0         0
         0         0         0         0         0         0         0         0
         0         0         0         0         0         0         0         0
         0         0         0         0         0         0         0         0
         0         0         0         0         0         0         0         0
         0         0         0         0         0         0         0         0
         0         0         0         0         0         0         0         0
         0         0         0         0         0         0         0         0
         0         0         0         0         0         0         0         0
         0         0         0         0         0         0         0         0
         0         0         0         0         0         0         0         0
         0         0         0         0         0         0         0         0
         0         0         0         0         0         0         0         0
         0         0         0         0         0         0         0         0
         0         0         0         0         0         0         0         0
         0         0         0         0         0         0         0         0
         0         0         0         0         0         0         0         0
         0         0         0         0         0         0         0         0
         0         0         0         0         0         0         0         0
         0         0         0         0         0         0         0         0
         0         0         0         0         0         0         0         0
         0         0         0         0         0         0         0         0
         0         0         0         0         0         0         0         0
         0         0         0         0         0         0         0         0
         0         0         0         0         0         0         0         0
         0         0         0         0         0         0         0         0
         0         0         0         0         0         0         0         0
         0         0         0         0         0         0         0         0
         0         0         0         0         0         0         0         0
         0         0         0         0         0         0         0         0
         0         0         0         0         0         0         0         0
         0         0         0         0         0         0         0         0
         0         0         0         0         0         0         0         0
         0         0         0         0         0         0         0         0
         0         0         0         0         0         0         0         0
         0         0         0         0         0         0         0         0
         0         0         0         0         0         0         0         0
         0         0         0         0         0         0         0         0
         0         0         0         0         0         0         0         0
         0         0         0         0         0         0         0         0
         0         0         0         0         0         0         0         0
         0         0         0         0         0         0         0         0
         0         0         0         0         0         0         0         0
         0         0         0         0         0         0         0         0
         0         0         0         0         0         0         0         0
         0         0         0         0         0         0         0         0
         0         0         0         0         0         0         0         0
         0         0         0         0         0         0         0         0
         0         0         0         0         0         0         0         0
         0         0         0         0         0         0         0         0
         0         0         0         0         0         0         0         0
         0         0         0         0         0         0         0         0
         0         0         0         0         0         0         0         0
         0         0         0         0         0         0         0         0
         0         0         0         0         0         0         0         0
         0         0         0         0         0         0         0         0
         0         0         0         0         0         0         0         0
         0         0         0         0         0         0         0         0
         0         0         0         0         0         0         0         0
         0         0         0         0         0         0         0         0
         0         0         0         0         0         0         0         0
         0         0         0         0         0         0         0         0
         0         0         0         0         0         0         0         0
         0         0         0         0         0         0         0         0
         0         0         0         0         0         0         0         0
         0         0         0         0         0         0         0         0
         0         0         0         0         0         0         0         0
         0         0         0         0         0         0         0         0
         0         0         0         0         0         0         0         0
         0         0         0         0         0         0         0         0
         0         0         0         0         0         0         0         0
         0         0         0         0         0         0         0         0
         0         0         0         0         0         0         0         0
         0         0         0         0         0         0         0         0
         0         0         0         0         0         0         0         0
         0         0         0         0         0         0         0         0
         0         0         0         0         0         0         0         0
         0         0         0         0         0         0         0         0
         0         0         0         0         0         0         0         0
         0         0         0         0         0         0         0         0
         0         0         0         0         0         0         0         0
         0         0         0         0         0         0         0         0
         0         0         0         0         0         0         0         0
         0         0         0         0         0         0         0         0
         0         0         0         0         0         0         0         0
         0         0         0         0         0         0         0         0
         0         0         0         0         0         0         0         0
         0         0         0         0         0         0         0         0
         0         0         0         0         0         0         0         0
         0         0         0         0         0         0         0         0
         0         0         0         0         0         0         0         0
         0         0         0         0         0         0         0         0
         0         0         0         0         0         0         0         0
         0         0         0         0         0         0         0         0
         0         0         0         0         0         0         0         0
         0         0         0         0         0         0         0         0
         0         0         0         0         0         0         0         0
         0         0         0         0         0         0         0         0
         0         0         0         0         0         0         0         0
         0         0         0         0         0         0         0         0
         0         0         0         0         0         0         0         0
         0         0         0         0         0         0         0         0
         0         0         0         0         0         0         0         0
         0         0         0         0         0         0         0         0
         0         0         0         0         0         0         0         0
         0         0         0         0         0         0         0         0
         0         0         0         0         0         0         0         0
         0         0         0         0         0         0         0         0
         0         0         0         0         0         0         0         0
         0         0         0         0         0         0         0         0
         0         0         0         0         0         0         0         0
         0         0         0         0         0         0         0         0
         0         0         0         0         0         0         0         0
         0         0         0         0         0         0         0         0
         0         0         0         0         0         0         0         0
         0         0         0         0         0         0         0         0
         0         0         0         0         0         0         0         0
         0         0         0         0         0         0         0         0
         0         0         0         0         0         0         0         0
         0         0         0         0         0         0         0         0
         0         0         0         0         0         0         0         0
         0         0         0         0         0         0         0         0
         0         0         0         0         0         0         0         0
         0         0         0         0         0         0         0         0
         0         0         0         0         0         0         0         0
         0         0         0         0         0         0         0         0
         0         0         0         0         0         0         0         0
         0         0         0         0         0         0         0         0
         0         0         0         0         0         0         0         0
         0         0         0         0         0         0         0         0
         0         0         0         0         0         0         0         0
         0         0         0         0         0         0         0         0
         0         0         0         0         0         0         0         0
         0         0         0         0         0         0         0         0
         0         0         0         0         0         0         0         0
         0         0         0         0         0         0         0         0
         0         0         0         0         0         0         0         0
         0         0         0         0         0         0         0         0
         0         0         0         0         0         0         0         0
         0         0         0         0         0         0         0         0
         0         0         0         0         0         0         0         0
         0         0         0         0         0         0         0         0
         0         0         0         0         0         0         0         0
         0         0         0         0         0         0         0         0
         0         0         0         0         0         0         0         0
         0         0         0         0         0         0         0         0
         0         0         0         0         0         0         0         0
         0         0         0         0         0         0         0         0
         0         0         0         0         0         0         0         0
         0         0         0         0         0         0         0         0
         0         0         0         0         0         0         0         0
         0         0         0         0         0         0         0         0
         0         0         0         0         0         0         0         0
         0         0         0         0         0         0         0         0
         0         0         0         0         0         0         0         0
         0         0         0         0         0         0         0         0
         0         0         0         0         0         0         0         0
         0         0         0         0         0         0         0         0
         0         0         0         0         0         0         0         0
         0         0         0         0         0         0         0         0
         0         0         0         0         0         0         0         0
         0         0         0         0         0         0         0         0
         0         0         0         0         0         0         0         0
         0         0         0         0         0         0         0         0
         0         0         0         0         0         0         0         0
         0         0         0         0         0         0         0         0
         0         0         0         0         0         0         0         0
         0         0         0         0         0         0         0         0
         0         0         0         0         0         0         0         0
         0         0         0         0         0         0         0         0
         0         0         0         0         0         0         0         0
         0         0         0         0         0         0         0         0
         0         0         0         0         0         0         0         0
         0         0         0         0         0         0         0         0
         0         0         0         0         0         0         0         0
         0         0         0         0         0         0         0         0
         0         0         0         0         0         0         0         0
         0         0         0         0         0         0         0         0
         0         0         0         0         0         0         0         0
         0         0         0         0         0         0         0         0
         0         0         0         0         0         0         0         0
         0         0         0         0         0         0         0         0
         0         0         0         0         0         0         0         0
         0         0         0         0         0         0         0         0
         0         0         0         0         0         0         0         0
         0         0         0         0         0         0         0         0
         0         0         0         0         0         0         0         0
         0         0         0         0         0         0         0         0
         0         0         0         0         0         0         0         0
         0         0         0         0         0         0         0         0
         0         0         0         0         0         0         0         0
         0         0         0         0         0         0         0         0
         0         0         0         0         0         0         0         0
         0         0         0         0         0         0         0         0
         0         0         0         0         0         0         0         0
         0         0         0         0         0         0         0         0
         0         0         0         0         0         0         0         0
         0         0         0         0         0         0         0         0
         0         0         0         0         0         0         0         0
         0         0         0         0         0         0         0         0
         0         0         0         0         0         0         0         0
         0         0         0         0         0         0         0         0
         0         0         0         0         0         0         0         0
         0         0         0         0         0         0         0         0
         0         0         0         0         0         0         0         0
         0         0         0         0         0         0         0         0
         0         0         0         0         0         0         0         0
         0         0         0         0         0         0         0         0
         0         0         0         0         0         0         0         0
         0         0         0         0         0         0         0         0
         0         0         0         0         0         0         0         0
         0         0         0         0         0         0         0         0
         0         0         0         0         0         0         0         0
         0         0         0         0         0         0         0         0
         0         0         0         0         0         0         0         0
         0         0         0         0         0         0         0         0
         0         0         0         0         0         0         0         0
         0         0         0         0         0         0         0         0
         0         0         0         0         0         0         0         0
         0         0         0         0         0         0         0         0
         0         0         0         0         0         0         0         0
         0         0         0         0         0         0         0         0
         0         0         0         0         0         0         0         0
         0         0         0         0         0         0         0         0
         0         0         0         0         0         0         0         0
         0         0         0         0         0         0         0         0
         0         0         0         0         0         0         0         0
         0         0         0         0         0         0         0         0
         0         0         0         0         0         0         0         0
         0         0         0         0         0         0         0         0
         0         0         0         0         0         0         0         0
         0         0         0         0         0         0         0         0
         0         0         0         0         0         0         0         0
         0         0         0         0         0         0         0         0
         0         0         0         0         0         0         0         0
         0         0         0         0         0         0         0         0
         0         0         0         0         0         0         0         0
         0         0         0         0         0         0         0         0
         0         0         0         0         0         0         0         0
         0         0         0         0         0         0         0         0
         0         0         0         0         0         0         0         0
         0         0         0         0         0         0         0         0
         0         0         0         0         0         0         0         0
         0         0         0         0         0         0         0         0
         0         0         0         0         0         0         0         0
         0         0         0         0         0         0         0         0
         0         0         0         0         0         0         0         0
         0         0         0         0         0         0         0         0
         0         0         0         0         0         0         0         0
         0         0         0         0         0         0         0         0
         0         0         0         0         0         0         0         0
         0         0         0         0         0         0         0         0
         0         0         0         0         0         0         0         0
         0         0         0         0         0         0         0         0
         0         0         0         0         0         0         0         0
         0         0         0         0         0         0         0         0
         0         0         0         0         0         0         0         0
         0         0         0         0         0         0         0         0
         0         0         0         0         0         0         0         0
         0         0         0         0         0         0         0         0
         0         0         0         0         0         0         0         0
         0         0         0         0         0         0         0         0
         0         0         0         0         0         0         0         0
         0         0         0         0         0         0         0         0
         0         0         0         0         0         0         0         0
         0         0         0         0         0         0         0         0
         0         0         0         0         0         0         0         0
         0         0         0         0         0         0         0         0
         0         0         0         0         0         0         0         0
         0         0         0         0         0         0         0         0
         0         0         0         0         0         0         0         0
         0         0         0         0         0         0         0         0
         0         0         0         0         0         0         0         0
         0         0         0         0         0         0         0         0
         0         0         0         0         0         0         0         0
         0         0         0         0         0         0         0         0
         0         0         0         0         0         0         0         0
         0         0         0         0         0         0         0         0
         0         0         0         0         0         0         0         0
         0         0         0         0         0         0         0         0
         0         0         0         0         0         0         0         0
         0         0         0         0         0         0         0         0
         0         0         0         0         0         0         0         0
         0         0         0         0         0         0         0         0
         0         0         0         0         0         0         0         0
         0         0         0         0         0         0         0         0
         0         0         0         0         0         0         0         0
         0         0         0         0         0         0         0         0
         0         0         0         0         0         0         0         0
         0         0         0         0         0         0         0         0
         0         0         0         0         0         0         0         0
         0         0         0         0         0         0         0         0
         0         0         0         0         0         0         0         0
         0         0         0         0         0         0         0         0
         0         0         0         0         0         0         0         0
         0         0         0         0         0         0         0         0
         0         0         0         0         0         0         0         0
         0         0         0         0         0         0         0         0
         0         0         0         0         0         0         0         0
         0         0         0         0         0         0         0         0
         0         0         0         0         0         0         0         0
         0         0         0         0         0         0         0         0
         0         0         0         0         0         0         0         0
         0         0         0         0         0         0         0         0
         0         0         0         0         0         0         0         0
         0         0         0         0         0         0         0         0
         0         0         0         0         0         0         0         0
         0         0         0         0         0         0         0         0
         0         0         0         0         0         0         0         0
         0         0         0         0         0         0         0         0
         0         0         0         0         0         0         0         0
         0         0         0         0         0         0         0         0
         0         0         0         0         0         0         0         0
         0         0         0         0         0         0         0         0
         0         0         0         0         0         0         0         0
         0         0         0         0         0         0         0         0
         0         0         0         0         0         0         0         0
         0         0         0         0         0         0         0         0
         0         0         0         0         0         0         0         0
         0         0         0         0         0         0         0         0
         0         0         0         0         0         0         0         0
         0         0         0         0         0         0         0         0
         0         0         0         0         0         0         0         0
         0         0         0         0         0         0         0         0
         0         0         0         0         0         0         0         0
         0         0         0         0         0         0         0         0
         0         0         0         0         0         0         0         0
         0         0         0         0         0         0         0         0
         0         0         0         0         0         0         0         0
         0         0         0         0         0         0         0         0
         0         0         0         0         0         0         0         0
         0         0         0         0         0         0         0         0
         0         0         0         0         0         0         0         0
         0         0         0         0         0         0         0         0
         0         0         0         0         0         0         0         0
         0         0         0         0         0         0         0         0
         0         0         0         0         0         0         0         0
         0         0         0         0         0         0         0         0
         0         0         0         0         0         0         0         0
         0         0         0         0         0         0         0         0
         0         0         0         0         0         0         0         0
         0         0         0         0         0         0         0         0
         0         0         0         0         0         0         0         0
         0         0         0         0         0         0         0         0
         0         0         0         0         0         0         0         0
         0         0         0         0         0         0         0         0
         0         0         0         0         0         0         0         0
         0         0         0         0         0         0         0         0
         0         0         0         0         0         0         0         0
         0         0         0         0         0         0         0         0
         0         0         0         0         0         0         0         0
         0         0         0         0         0         0         0         0
         0         0         0         0         0         0         0         0
         0         0         0         0         0         0         0         0
         0         0         0         0         0         0         0         0
         0         0         0         0         0         0         0         0
         0         0         0         0         0         0         0         0
         0         0         0         0         0         0         0         0
         0         0         0         0         0         0         0         0
         0         0         0         0         0         0         0         0
         0         0         0         0         0         0         0         0
         0         0         0         0         0         0         0         0
         0         0         0         0         0         0         0         0
         0         0         0         0         0         0         0         0
         0         0         0         0         0         0         0         0
         0         0         0         0         0         0         0         0
         0         0         0         0         0         0         0         0
         0         0         0         0         0         0         0         0
         0         0         0         0         0         0         0         0
         0         0         0         0         0         0         0         0
         0         0         0         0         0         0         0         0
         0         0         0         0         0         0         0         0
         0         0         0         0         0         0         0         0
         0         0         0         0         0         0         0         0
         0         0         0         0         0         0         0         0
         0         0         0         0         0         0         0         0
         0         0         0         0         0         0         0         0
         0         0         0         0         0         0         0         0
         0         0         0         0         0         0         0         0
         0         0         0         0         0         0         0         0
         0         0         0         0         0         0         0         0
         0         0         0         0         0         0         0         0
         0         0         0         0         0         0         0         0
         0         0         0         0         0         0         0         0
         0         0         0         0         0         0         0         0
         0         0         0         0         0         0         0         0
         0         0         0         0         0         0         0         0
         0         0         0         0         0         0         0         0
         0         0         0         0         0         0         0         0
         0         0         0         0         0         0         0         0
         0         0         0         0         0         0         0         0
         0         0         0         0         0         0         0         0
         0         0         0         0         0         0         0         0
         0         0         0         0         0         0         0         0
         0         0         0         0         0         0         0         0
         0         0         0         0         0         0         0         0
         0         0         0         0         0         0         0         0
         0         0         0         0         0         0         0         0
         0         0         0         0         0         0         0         0
         0         0         0         0         0         0         0         0
         0         0         0         0         0         0         0         0
         0         0         0         0         0         0         0         0
         0         0         0         0         0         0         0         0
         0         0         0         0         0         0         0         0
         0         0         0         0         0         0         0         0
         0         0         0         0         0         0         0         0
         0         0         0         0         0         0         0         0
         0         0         0         0         0         0         0         0
         0         0         0         0         0         0         0         0
         0         0         0         0         0         0         0         0
         0         0         0         0         0         0         0         0
         0         0         0         0         0         0         0         0
         0         0         0         0         0         0         0         0
         0         0         0         0         0         0         0         0
         0         0         0         0         0         0         0         0
         0         0         0         0         0         0         0         0
         0         0         0         0         0         0         0         0
         0         0         0         0         0         0         0         0
         0         0         0         0         0         0         0         0
         0         0         0         0         0         0         0         0
         0         0         0         0         0         0         0         0
         0         0         0         0         0         0         0         0
         0         0         0         0         0         0         0         0
         0         0         0         0         0         0         0         0
         0         0         0         0         0         0         0         0
         0         0         0         0         0         0         0         0
         0         0         0         0         0         0         0         0
         0         0         0         0         0         0         0         0
         0         0         0         0         0         0         0         0
         0         0         0         0         0         0         0         0
         0         0         0         0         0         0         0         0
         0         0         0         0         0         0         0         0
         0         0         0         0         0         0         0         0
         0         0         0         0         0         0         0         0
         0         0         0         0         0         0         0         0
         0         0         0         0         0         0         0         0
         0         0         0         0         0         0         0         0
         0         0         0         0         0         0         0         0
         0         0         0         0         0         0         0         0
         0         0         0         0         0         0         0         0
         0         0         0         0         0         0         0         0
         0         0         0         0         0         0         0         0
         0         0         0         0         0         0         0         0
         0         0         0         0         0         0         0         0
         0         0         0         0         0         0         0         0
         0         0         0         0         0         0         0         0
         0         0         0         0         0         0         0         0
         0         0         0         0         0         0         0         0
         0         0         0         0         0         0         0         0
         0         0         0         0         0         0         0         0
         0         0         0         0         0         0         0         0
         0         0         0         0         0         0         0         0
         0         0         0         0         0         0         0         0
         0         0         0         0         0         0         0         0
         0         0         0         0         0         0         0         0
         0         0         0         0         0         0         0         0
         0         0         0         0         0         0         0         0
         0         0         0         0         0         0         0         0
         0         0         0         0         0         0         0         0
         0         0         0         0         0         0         0         0
         0         0         0         0         0         0         0         0
         0         0         0         0         0         0         0         0
         0         0         0         0         0         0         0         0
         0         0         0         0         0         0         0         0
         0         0         0         0         0         0         0         0
         0         0         0         0         0         0         0         0
         0         0         0         0         0         0         0         0
         0         0         0         0         0         0         0         0
         0         0         0         0         0         0         0         0
         0         0         0         0         0         0         0         0
         0         0         0         0         0         0         0         0
         0         0         0         0         0         0         0         0
         0         0         0         0         0         0         0         0
         0         0         0         0         0         0         0         0
         0         0         0         0         0         0         0         0
         0         0         0         0         0         0         0         0
         0         0         0         0         0         0         0         0
         0         0         0         0         0         0         0         0
         0         0         0         0         0         0         0         0
         0         0         0         0         0         0         0         0
         0         0         0         0         0         0         0         0
         0         0         0         0         0         0         0         0
         0         0         0         0         0         0         0         0
         0         0         0         0         0         0         0         0
         0         0         0         0         0         0         0         0
         0         0         0         0         0         0         0         0
         0         0         0         0         0         0         0         0
         0         0         0         0         0         0         0         0
         0         0         0         0         0         0         0         0
         0         0         0         0         0         0         0         0
         0         0         0         0         0         0         0         0
         0         0         0         0         0         0         0         0
         0         0         0         0         0         0         0         0
         0         0         0         0         0         0         0         0
         0         0         0         0         0         0         0         0
         0         0         0         0         0         0         0         0
         0         0         0         0         0         0         0         0
         0         0         0         0         0         0         0         0
         0         0         0         0         0         0         0         0
         0         0         0         0         0         0         0         0
         0         0         0         0         0         0         0         0
         0         0         0         0         0         0         0         0
         0         0         0         0         0         0         0         0
         0         0         0         0         0         0         0         0
         0         0         0         0         0         0         0         0
         0         0         0         0         0         0         0         0
         0         0         0         0         0         0         0         0
         0         0         0         0         0         0         0         0
         0         0         0         0         0         0         0         0
         0         0         0         0         0         0         0         0
         0         0         0         0         0         0         0         0
         0         0         0         0         0         0         0         0
         0         0         0         0         0         0         0         0
         0         0         0         0         0         0         0         0
         0         0         0         0         0         0         0         0
         0         0         0         0         0         0         0         0
         0         0         0         0         0         0         0         0
         0         0         0         0         0         0         0         0
         0         0         0         0         0         0         0         0
         0         0         0         0         0         0         0         0
         0         0         0         0         0         0         0         0
         0         0         0         0         0         0         0         0
         0         0         0         0         0         0         0         0
         0         0         0         0         0         0         0         0
         0         0         0         0         0         0         0         0
         0         0         0         0         0         0         0         0
         0         0         0         0         0         0         0         0
         0         0         0         0         0         0         0         0
         0         0         0         0         0         0         0         0
         0         0         0         0         0         0         0         0
         0         0         0         0         0         0         0         0
         0         0         0         0         0         0         0         0
         0         0         0         0         0         0         0         0
         0         0         0         0         0         0         0         0
         0         0         0         0         0         0         0         0
         0         0         0         0         0         0         0         0
         0         0         0         0         0         0         0         0
         0         0         0         0         0         0         0         0
         0         0         0         0         0         0         0         0
         0         0         0         0         0         0         0         0
         0         0         0         0         0         0         0         0
         0         0         0         0         0         0         0         0
         0         0         0         0         0         0         0         0
         0         0         0         0         0         0         0         0
         0         0         0         0         0         0         0         0
         0         0         0         0         0         0         0         0
         0         0         0         0         0         0         0         0
         0         0         0         0         0         0         0         0
         0         0         0         0         0         0         0         0
         0         0         0         0         0         0         0         0
         0         0         0         0         0         0         0         0
         0         0         0         0         0         0         0         0
         0         0         0         0         0         0         0         0
         0         0         0         0         0         0         0         0
         0         0         0         0         0         0         0         0
         0         0         0         0         0         0         0         0
         0         0         0         0         0         0         0         0
         0         0         0         0         0         0         0         0
         0         0         0         0         0         0         0         0
         0         0         0         0         0         0         0         0
         0         0         0         0         0         0         0         0
         0         0         0         0         0         0         0         0
         0         0         0         0         0         0         0         0
         0         0         0         0         0         0         0         0
         0         0         0         0         0         0         0         0
         0         0         0         0         0         0         0         0
         0         0         0         0         0         0         0         0
         0         0         0         0         0         0         0         0
         0         0         0         0         0         0         0         0
         0         0         0         0         0         0         0         0
         0         0         0         0         0         0         0         0
         0         0         0         0         0         0         0         0
         0         0         0         0         0         0         0         0
         0         0         0         0         0         0         0         0
         0         0         0         0         0         0         0         0
         0         0         0         0         0         0         0         0
         0         0         0         0         0         0         0         0
         0         0         0         0         0         0         0         0
         0         0         0         0         0         0         0         0
         0         0         0         0         0         0         0         0
         0         0         0         0         0         0         0         0
         0         0         0         0         0         0         0         0
         0         0         0         0         0         0         0         0
         0         0         0         0         0         0         0         0
         0         0         0         0         0         0         0         0
         0         0         0         0         0         0         0         0
         0         0         0         0         0         0         0         0
         0         0         0         0         0         0         0         0
         0         0         0         0         0         0         0         0
         0         0         0         0         0         0         0         0
         0         0         0         0         0         0         0         0
         0         0         0         0         0         0         0         0
         0         0         0         0         0         0         0         0
         0         0         0         0         0         0         0         0
         0         0         0         0         0         0         0         0
         0         0         0         0         0         0         0         0
         0         0         0         0         0         0         0         0
         0         0         0         0         0         0         0         0
         0         0         0         0         0         0         0         0
         0         0         0         0         0         0         0         0
         0         0         0         0         0         0         0         0
         0         0         0         0         0         0         0         0
         0         0         0         0         0         0         0         0
         0         0         0         0         0         0         0         0
         0         0         0         0         0         0         0         0
         0         0         0         0         0         0         0         0
         0         0         0         0         0         0         0         0
         0         0         0         0         0         0         0         0
         0         0         0         0         0         0         0         0
         0         0         0         0         0         0         0         0
         0         0         0         0         0         0         0         0
         0         0         0         0         0         0         0         0
         0         0         0         0         0         0         0         0
         0         0         0         0         0         0         0         0
         0         0         0         0         0         0         0         0
         0         0         0         0         0         0         0         0
         0         0         0         0         0         0         0         0
         0         0         0         0         0         0         0         0
         0         0         0         0         0         0         0         0
         0         0         0         0         0         0         0         0
         0         0         0         0         0         0         0         0
         0         0         0         0         0         0         0         0
         0         0         0         0         0         0         0         0
         0         0         0         0         0         0         0         0
         0         0         0         0         0         0         0         0
         0         0         0         0         0         0         0         0
         0         0         0         0         0         0         0         0
         0         0         0         0         0         0         0         0
         0         0         0         0         0         0         0         0
         0         0         0         0         0         0         0         0
         0         0         0         0         0         0         0         0
         0         0         0         0         0         0         0         0
         0         0         0         0         0         0         0         0
         0         0         0         0         0         0         0         0
         0         0         0         0         0         0         0         0
         0         0         0         0         0         0         0         0
         0         0         0         0         0         0         0         0
         0         0         0         0         0         0         0         0
         0         0         0         0         0         0         0         0
         0         0         0         0         0         0         0         0
         0         0         0         0         0         0         0         0
         0         0         0         0         0         0         0         0
         0         0         0         0         0         0         0         0
         0         0         0         0         0         0         0         0
         0         0         0         0         0         0         0         0
         0         0         0         0         0         0         0         0
         0         0         0         0         0         0         0         0
         0         0         0         0         0         0         0         0
         0         0         0         0         0         0         0         0
         0         0         0         0         0         0         0         0
         0         0         0         0         0         0         0         0
         0         0         0         0         0         0         0         0
         0         0         0         0         0         0         0         0
         0         0         0         0         0         0         0         0
         0         0         0         0         0         0         0         0
         0         0         0         0         0         0         0         0
         0         0         0         0         0         0         0         0
         0         0         0         0         0         0         0         0
         0         0         0         0         0         0         0         0
         0         0         0         0         0         0         0         0
         0         0         0         0         0         0         0         0
         0         0         0         0         0         0         0         0
         0         0         0         0         0         0         0         0
         0         0         0         0         0         0         0         0
         0         0         0         0         0         0         0         0
         0         0         0         0         0         0         0         0
         0         0         0         0         0         0         0         0
         0         0         0         0         0         0         0         0
         0         0         0         0         0         0         0         0
         0         0         0         0         0         0         0         0
         0         0         0         0         0         0         0         0
         0         0         0         0         0         0         0         0
         0         0         0         0         0         0         0         0
         0         0         0         0         0         0         0         0
         0         0         0         0         0         0         0         0
         0         0         0         0         0         0         0         0
         0         0         0         0         0         0         0         0
         0         0         0         0         0         0         0         0
         0         0         0         0         0         0         0         0
         0         0         0         0         0         0         0         0
         0         0         0         0         0         0         0         0
         0         0         0         0         0         0         0         0
         0         0         0         0         0         0         0         0
         0         0         0         0         0         0         0         0
         0         0         0         0         0         0         0         0
         0         0         0         0         0         0         0         0
         0         0         0         0         0         0         0         0
         0         0         0         0         0         0         0         0
         0         0         0         0         0         0         0         0
         0         0         0         0         0         0         0         0
         0         0         0         0         0         0         0         0
         0         0         0         0         0         0         0         0
         0         0         0         0         0         0         0         0
         0         0         0         0         0         0         0         0
         0         0         0         0         0         0         0         0
         0         0         0         0         0         0         0         0
         0         0         0         0         0         0         0         0
         0         0         0         0         0         0         0         0
         0         0         0         0         0         0         0         0
         0         0         0         0         0         0         0         0
         0         0         0         0         0         0         0         0
         0         0         0         0         0         0         0         0
         0         0         0         0         0         0         0         0
         0         0         0         0         0         0         0         0
         0         0         0         0         0         0         0         0
         0         0         0         0         0         0         0         0
         0         0         0         0         0         0         0         0
         0         0         0         0         0         0         0         0
         0         0         0         0         0         0         0         0
         0         0         0         0         0         0         0         0
         0         0         0         0         0         0         0         0
         0         0         0         0         0         0         0         0
         0         0         0         0         0         0         0         0
         0         0         0         0         0         0         0         0
         0         0         0         0         0         0         0         0
         0         0         0         0         0         0         0         0
         0         0         0         0         0         0         0         0
         0         0         0         0         0         0         0         0
         0         0         0         0         0         0         0         0
         0         0         0         0         0         0         0         0
         0         0         0         0         0         0         0         0
         0         0         0         0         0         0         0         0
         0         0         0         0         0         0         0         0
         0         0         0         0         0         0         0         0
         0         0         0         0         0         0         0         0
         0         0         0         0         0         0         0         0
         0         0         0         0         0         0         0         0
         0         0         0         0         0         0         0         0
         0         0         0         0         0         0         0         0
         0         0         0         0         0         0         0         0
         0         0         0         0         0         0         0         0
         0         0         0         0         0         0         0         0
         0         0         0         0         0         0         0         0
         0         0         0         0         0         0         0         0
         0         0         0         0         0         0         0         0
         0         0         0         0         0         0         0         0
         0         0         0         0         0         0         0         0
         0         0         0         0         0         0         0         0
         0         0         0         0         0         0         0         0
         0         0         0         0         0         0         0         0
         0         0         0         0         0         0         0         0
         0         0         0         0         0         0         0         0
         0         0         0         0         0         0         0         0
         0         0         0         0         0         0         0         0
         0         0         0         0         0         0         0         0
         0         0         0         0         0         0         0         0
         0         0         0         0         0         0         0         0
         0         0         0         0         0         0         0         0
         0         0         0         0         0         0         0         0
         0         0         0         0         0         0         0         0
         0         0         0         0         0         0         0         0
         0         0         0         0         0         0         0         0
         0         0         0         0         0         0         0         0
         0         0         0         0         0         0         0         0
         0         0         0         0         0         0         0         0
         0         0         0         0         0         0         0         0
         0         0         0         0         0         0         0         0
         0         0         0         0         0         0         0         0
         0         0         0         0         0         0         0         0
         0         0         0         0         0         0         0         0
         0         0         0         0         0         0         0         0
         0         0         0         0         0         0         0         0
         0         0         0         0         0         0         0         0
         0         0         0         0         0         0         0         0
         0         0         0         0         0         0         0         0
         0         0         0         0         0         0         0         0
         0         0         0         0         0         0         0         0
         0         0         0         0         0         0         0         0
         0         0         0         0         0         0         0         0
         0         0         0         0         0         0         0         0
         0         0         0         0         0         0         0         0
         0         0         0         0         0         0         0         0
         0         0         0         0         0         0         0         0
         0         0         0         0         0         0         0         0
         0         0         0         0         0         0         0         0
         0         0         0         0         0         0         0         0
         0         0         0         0         0         0         0         0
         0         0         0         0         0         0         0         0
         0         0         0         0         0         0         0         0
         0         0         0         0         0         0         0         0
         0         0         0         0         0         0         0         0
         0         0         0         0         0         0         0         0
         0         0         0         0         0         0         0         0
         0         0         0         0         0         0         0         0
         0         0         0         0         0         0         0         0
         0         0         0         0         0         0         0         0
         0         0         0         0         0         0         0         0
         0         0         0         0         0         0         0         0
         0         0         0         0         0         0         0         0
         0         0         0         0         0         0         0         0
         0         0         0         0         0         0         0         0
         0         0         0         0         0         0         0         0
         0         0         0         0         0         0         0         0
         0         0         0         0         0         0         0         0
         0         0         0         0         0         0         0         0
         0         0         0         0         0         0         0         0
         0         0         0         0         0         0         0         0
         0         0         0         0         0         0         0         0
         0         0         0         0         0         0         0         0
         0         0         0         0         0         0         0         0
         0         0         0         0         0         0         0         0
         0         0         0         0         0         0         0         0
         0         0         0         0         0         0         0         0
         0         0         0         0         0         0         0         0
         0         0         0         0         0         0         0         0
         0         0         0         0         0         0         0         0
         0         0         0         0         0         0         0         0
         0         0         0         0         0         0         0         0
         0         0         0         0         0         0         0         0
         0         0         0         0         0         0         0         0
         0         0         0         0         0         0         0         0
         0         0         0         0         0         0         0         0
         0         0         0         0         0         0         0         0
         0         0         0         0         0         0         0         0
         0         0         0         0         0         0         0         0
         0         0         0         0         0         0         0         0
         0         0         0         0         0         0         0         0
         0         0         0         0         0         0         0         0
         0         0         0         0         0         0         0         0
         0         0         0         0         0         0         0         0
         0         0         0         0         0         0         0         0
         0         0         0         0         0         0         0         0
         0         0         0         0         0         0         0         0
         0         0         0         0         0         0         0         0
         0         0         0         0         0         0         0         0
         0         0         0         0         0         0         0         0
         0         0         0         0         0         0         0         0
         0         0         0         0         0         0         0         0
         0         0         0         0         0         0         0         0
         0         0         0         0         0         0         0         0
         0         0         0         0         0         0         0         0
         0         0         0         0         0         0         0         0
         0         0         0         0         0         0         0         0
         0         0         0         0         0         0         0         0
         0         0         0         0         0         0         0         0
         0         0         0         0         0         0         0         0
         0         0         0         0         0         0         0         0
         0         0         0         0         0         0         0         0
         0         0         0         0         0         0         0         0
         0         0         0         0         0         0         0         0
         0         0         0         0         0         0         0         0
         0         0         0         0         0         0         0         0
         0         0         0         0         0         0         0         0
         0         0         0         0         0         0         0         0
         0         0         0         0         0         0         0         0
         0         0         0         0         0         0         0         0
         0         0         0         0         0         0         0         0
         0         0         0         0         0         0         0         0
         0         0         0         0         0         0         0         0
         0         0         0         0         0         0         0         0
         0         0         0         0         0         0         0         0
         0         0         0         0         0         0         0         0
         0         0         0         0         0         0         0         0
         0         0         0         0         0         0         0         0
         0         0         0         0         0         0         0         0
         0         0         0         0         0         0         0         0
         0         0         0         0         0         0         0         0
         0         0         0         0         0         0         0         0
         0         0         0         0         0         0         0         0
         0         0         0         0         0         0         0         0
         0         0         0         0         0         0         0         0
         0         0         0         0         0         0         0         0
         0         0         0         0         0         0         0         0
         0         0         0         0         0         0         0         0
         0         0         0         0         0         0         0         0
         0         0         0         0         0         0         0         0
         0         0         0         0         0         0         0         0
         0         0         0         0         0         0         0         0
         0         0         0         0         0         0         0         0
         0         0         0         0         0         0         0         0
         0         0         0         0         0         0         0         0
         0         0         0         0         0         0         0         0
         0         0         0         0         0         0         0         0
         0         0         0         0         0         0         0         0
         0         0         0         0         0         0         0         0
         0         0         0         0         0         0         0         0
         0         0         0         0         0         0         0         0
         0         0         0         0         0         0         0         0
         0         0         0         0         0         0         0         0
         0         0         0         0         0         0         0         0
         0         0         0         0         0         0         0         0
         0         0         0         0         0         0         0         0
         0         0         0         0         0         0         0         0
         0         0         0         0         0         0         0         0
         0         0         0         0         0         0         0         0
         0         0         0         0         0         0         0         0
         0         0         0         0         0         0         0         0
         0         0         0         0         0         0         0         0
         0         0         0         0         0         0         0         0
         0         0         0         0         0         0         0         0
         0         0         0         0         0         0         0         0
         0         0         0         0         0         0         0         0
         0         0         0         0         0         0         0         0
         0         0         0         0         0         0         0         0
         0         0         0         0         0         0         0         0
         0         0         0         0         0         0         0         0
         0         0         0         0         0         0         0         0
         0         0         0         0         0         0         0         0
         0         0         0         0         0         0         0         0
         0         0         0         0         0         0         0         0
         0         0         0         0         0         0         0         0
         0         0         0         0         0         0         0         0
         0         0         0         0         0         0         0         0
         0         0         0         0         0         0         0         0
         0         0         0         0         0         0         0         0
         0         0         0         0         0         0         0         0
         0         0         0         0         0         0         0         0
         0         0         0         0         0         0         0         0
         0         0         0         0         0         0         0         0
         0         0         0         0         0         0         0         0
         0         0         0         0         0         0         0         0
         0         0         0         0         0         0         0         0
         0         0         0         0         0         0         0         0
         0         0         0         0         0         0         0         0
         0         0         0         0         0         0         0         0
         0         0         0         0         0         0         0         0
         0         0         0         0         0         0         0         0
         0         0         0         0         0         0         0         0
         0         0         0         0         0         0         0         0
         0         0         0         0         0         0         0         0
         0         0         0         0         0         0         0         0
         0         0         0         0         0         0         0         0
         0         0         0         0         0         0         0         0
         0         0         0         0         0         0         0         0
         0         0         0         0         0         0         0         0
         0         0         0         0         0         0         0         0
         0         0         0         0         0         0         0         0
         0         0         0         0         0         0         0         0
         0         0         0         0         0         0         0         0
         0         0         0         0         0         0         0         0
         0         0         0         0         0         0         0         0
         0         0         0         0         0         0         0         0
         0         0         0         0         0         0         0         0
         0         0         0         0         0         0         0         0
         0         0         0         0         0         0         0         0
         0         0         0         0         0         0         0         0
         0         0         0         0         0         0         0         0
         0         0         0         0         0         0         0         0
         0         0         0         0         0         0         0         0
         0         0         0         0         0         0         0         0
         0         0         0         0         0         0         0         0
         0         0         0         0         0         0         0         0
         0         0         0         0         0         0         0         0
         0         0         0         0         0         0         0         0
         0         0         0         0         0         0         0         0
         0         0         0         0         0         0         0         0
         0         0         0         0         0         0         0         0
         0         0         0         0         0         0         0         0
         0         0         0         0         0         0         0         0
         0         0         0         0         0         0         0         0
         0         0         0         0         0         0         0         0
         0         0         0         0         0         0         0         0
         0         0         0         0         0         0         0         0
         0         0         0         0         0         0         0         0
         0         0         0         0         0         0         0         0
         0         0         0         0         0         0         0         0
         0         0         0         0         0         0         0         0
         0         0         0         0         0         0         0         0
         0         0         0         0         0         0         0         0
         0         0         0         0         0         0         0         0
         0         0         0         0         0         0         0         0
         0         0         0         0         0         0         0         0
         0         0         0         0         0         0         0         0
         0         0         0         0         0         0         0         0
         0         0         0         0         0         0         0         0
         0         0         0         0         0         0         0         0
         0         0         0         0         0         0         0         0
         0         0         0         0         0         0         0         0
         0         0         0         0         0         0         0         0
         0         0         0         0         0         0         0         0
         0         0         0         0         0         0         0         0
         0         0         0         0         0         0         0         0
         0         0         0         0         0         0         0         0
         0         0         0         0         0         0         0         0
         0         0         0         0         0         0         0         0
         0         0         0         0         0         0         0         0
         0         0         0         0         0         0         0         0
         0         0         0         0         0         0         0         0
         0         0         0         0         0         0         0         0
         0         0         0         0         0         0         0         0
         0         0         0         0         0         0         0         0
         0         0         0         0         0         0         0         0
         0         0         0         0         0         0         0         0
         0         0         0         0         0         0         0         0
         0         0         0         0         0         0         0         0
         0         0         0         0         0         0         0         0
         0         0         0         0         0         0         0         0
         0         0         0         0         0         0         0         0
         0         0         0         0         0         0         0         0
         0         0         0         0         0         0         0         0
         0         0         0         0         0         0         0         0
         0         0         0         0         0         0         0         0
         0         0         0         0         0         0         0         0
         0         0         0         0         0         0         0         0
         0         0         0         0         0         0         0         0
         0         0         0         0         0         0         0         0
         0         0         0         0         0         0         0         0
         0         0         0         0         0         0         0         0
         0         0         0         0         0         0         0         0
         0         0         0         0         0         0         0         0
         0         0         0         0         0         0         0         0
         0         0         0         0         0         0         0         0
         0         0         0         0         0         0         0         0
         0         0         0         0         0         0         0         0
         0         0         0         0         0         0         0         0
         0         0         0         0         0         0         0         0
         0         0         0         0         0         0         0         0
         0         0         0         0         0         0         0         0
         0         0         0         0         0         0         0         0
         0         0         0         0         0         0         0         0
         0         0         0         0         0         0         0         0
         0         0         0         0         0         0         0         0
         0         0         0         0         0         0         0         0
         0         0         0         0         0         0         0         0
         0         0         0         0         0         0         0         0
         0         0         0         0         0         0         0         0
         0         0         0         0         0         0         0         0
         0         0         0         0         0         0         0         0
         0         0         0         0         0         0         0         0
         0         0         0         0         0         0         0         0
         0         0         0         0         0         0         0         0
         0         0         0         0         0         0         0         0
         0         0         0         0         0         0         0         0
         0         0         0         0         0         0         0         0
         0         0         0         0         0         0         0         0
         0         0         0         0         0         0         0         0
         0         0         0         0         0         0         0         0
         0         0         0         0         0         0         0         0
         0         0         0         0         0         0         0         0
         0         0         0         0         0         0         0         0
         0         0         0         0         0         0         0         0
         0         0         0         0         0         0         0         0
         0         0         0         0         0         0         0         0
         0         0         0         0         0         0         0         0
         0         0         0         0         0         0         0         0
         0         0         0         0         0         0         0         0
         0         0         0         0         0         0         0         0
         0         0         0         0         0         0         0         0
         0         0         0         0         0         0         0         0
         0         0         0         0         0         0         0         0
         0         0         0         0         0         0         0         0
         0         0         0         0         0         0         0         0
         0         0         0         0         0         0         0         0
         0         0         0         0         0         0         0         0
         0         0         0         0         0         0         0         0
         0         0         0         0         0         0         0         0
         0         0         0         0         0         0         0         0
         0         0         0         0         0         0         0         0
         0         0         0         0         0         0         0         0
         0         0         0         0         0         0         0         0
         0         0         0         0         0         0         0         0
         0         0         0         0         0         0         0         0
         0         0         0         0         0         0         0         0
         0         0         0         0         0         0         0         0
         0         0         0         0         0         0         0         0
         0         0         0         0         0         0         0         0
         0         0         0         0         0         0         0         0
         0         0         0         0         0         0         0         0
         0         0         0         0         0         0         0         0
         0         0         0         0         0         0         0         0
         0         0         0         0         0         0         0         0
         0         0         0         0         0         0         0         0
         0         0         0         0         0         0         0         0
         0         0         0         0         0         0         0         0
         0         0         0         0         0         0         0         0
         0         0         0         0         0         0         0         0
         0         0         0         0         0         0         0         0
         0         0         0         0         0         0         0         0
         0         0         0         0         0         0         0         0
         0         0         0         0         0         0         0         0
         0         0         0         0         0         0         0         0
         0         0         0         0         0         0         0         0
         0         0         0         0         0         0         0         0
         0         0         0         0         0         0         0         0
         0         0         0         0         0         0         0         0
         0         0         0         0         0         0         0         0
         0         0         0         0         0         0         0         0
         0         0         0         0         0         0         0         0
         0         0         0         0         0         0         0         0
         0         0         0         0         0         0         0         0
         0         0         0         0         0         0         0         0
         0         0         0         0         0         0         0         0
         0         0         0         0         0         0         0         0
         0         0         0         0         0         0         0         0
         0         0         0         0         0         0         0         0
         0         0         0         0         0         0         0         0
         0         0         0         0         0         0         0         0
         0         0         0         0         0         0         0         0
         0         0         0         0         0         0         0         0
         0         0         0         0         0         0         0         0
         0         0         0         0         0         0         0         0
         0         0         0         0         0         0         0         0
         0         0         0         0         0         0         0         0
         0         0         0         0         0         0         0         0
         0         0         0         0         0         0         0         0
         0         0         0         0         0         0         0         0
         0         0         0         0         0         0         0         0
         0         0         0         0         0         0         0         0
         0         0         0         0         0         0         0         0
         0         0         0         0         0         0         0         0
         0         0         0         0         0         0         0         0
         0         0         0         0         0         0         0         0
         0         0         0         0         0         0         0         0
         0         0         0         0         0         0         0         0
         0         0         0         0         0         0         0         0
         0         0         0         0         0         0         0         0
         0         0         0         0         0         0         0         0
         0         0         0         0         0         0         0         0
         0         0         0         0         0         0         0         0
         0         0         0         0         0         0         0         0
         0         0         0         0         0         0         0         0
         0         0         0         0         0         0         0         0
         0         0         0         0         0         0         0         0
         0         0         0         0         0         0         0         0
         0         0         0         0         0         0         0         0
         0         0         0         0         0         0         0         0
         0         0         0         0         0         0         0         0
         0         0         0         0         0         0         0         0
         0         0         0         0         0         0         0         0
         0         0         0         0         0         0         0         0
         0         0         0         0         0         0         0         0
         0         0         0         0         0         0         0         0
         0         0         0         0         0         0         0         0
         0         0         0         0         0         0         0         0
         0         0         0         0         0         0         0         0
         0         0         0         0         0         0         0         0
         0         0         0         0         0         0         0         0
         0         0         0         0         0         0         0         0
         0         0         0         0         0         0         0         0
         0         0         0         0         0         0         0         0
         0         0         0         0         0         0         0         0
         0         0         0         0         0         0         0         0
         0         0         0         0         0         0         0         0
         0         0         0         0         0         0         0         0
         0         0         0         0         0         0         0         0
         0         0         0         0         0         0         0         0
         0         0         0         0         0         0         0         0
         0         0         0         0         0         0         0         0
         0         0         0         0         0         0         0         0
         0         0         0         0         0         0         0         0
         0         0         0         0         0         0         0         0
         0         0         0         0         0         0         0         0
         0         0         0         0         0         0         0         0
         0         0         0         0         0         0         0         0
         0         0         0         0         0         0         0         0
         0         0         0         0         0         0         0         0
         0         0         0         0         0         0         0         0
         0         0         0         0         0         0         0         0
         0         0         0         0         0         0         0         0
         0         0         0         0         0         0         0         0
         0         0         0         0         0         0         0         0
         0         0         0         0         0         0         0         0
         0         0         0         0         0         0         0         0
         0         0         0         0         0         0         0         0
         0         0         0         0         0         0         0         0
         0         0         0         0         0         0         0         0
         0         0         0         0         0         0         0         0
         0         0         0         0         0         0         0         0
         0         0         0         0         0         0         0         0
         0         0         0         0         0         0         0         0
         0         0         0         0         0         0         0         0
         0         0         0         0         0         0         0         0
         0         0         0         0         0         0         0         0
         0         0         0         0         0         0         0         0
         0         0         0         0         0         0         0         0
         0         0         0         0         0         0         0         0
         0         0         0         0         0         0         0         0
         0         0         0         0         0         0         0         0
         0         0         0         0         0         0         0         0
         0         0         0         0         0         0         0         0
         0         0         0         0         0         0         0         0
         0         0         0         0         0         0         0         0
         0         0         0         0         0         0         0         0
         0         0         0         0         0         0         0         0
         0         0         0         0         0         0         0         0
         0         0         0         0         0         0         0         0
         0         0         0         0         0         0         0         0
         0         0         0         0         0         0         0         0
         0         0         0         0         0         0         0         0
         0         0         0         0         0         0         0         0
         0         0         0         0         0         0         0         0
         0         0         0         0         0         0         0         0
         0         0         0         0         0         0         0         0
         0         0         0         0         0         0         0         0
         0         0         0         0         0         0         0         0
         0         0         0         0         0         0         0         0
         0         0         0         0         0         0         0         0
         0         0         0         0         0         0         0         0
         0         0         0         0         0         0         0         0
         0         0         0         0         0         0         0         0
         0         0         0         0         0         0         0         0
         0         0         0         0         0         0         0         0
         0         0         0         0         0         0         0         0
         0         0         0         0         0         0         0         0
         0         0         0         0         0         0         0         0
         0         0         0         0         0         0         0         0
         0         0         0         0         0         0         0         0
         0         0         0         0         0         0         0         0
         0         0         0         0         0         0         0         0
         0         0         0         0         0         0         0         0
         0         0         0         0         0         0         0         0
         0         0         0         0         0         0         0         0
         0         0         0         0         0         0         0         0
         0         0         0         0         0         0         0         0
         0         0         0         0         0         0         0         0
         0         0         0         0         0         0         0         0
         0         0         0         0         0         0         0         0
         0         0         0         0         0         0         0         0
         0         0         0         0         0         0         0         0
         0         0         0         0         0         0         0         0
         0         0         0         0         0         0         0         0
         0         0         0         0         0         0         0         0
         0         0         0         0         0         0         0         0
         0         0         0         0         0         0         0         0
         0         0         0         0         0         0         0         0
         0         0         0         0         0         0         0         0
         0         0         0         0         0         0         0         0
         0         0         0         0         0         0         0         0
         0         0         0         0         0         0         0         0
         0         0         0         0         0         0         0         0
         0         0         0         0         0         0         0         0
         0         0         0         0         0         0         0         0
         0         0         0         0         0         0         0         0
         0         0         0         0         0         0         0         0
         0         0         0         0         0         0         0         0
         0         0         0         0         0         0         0         0
         0         0         0         0         0         0         0         0
         0         0         0         0         0         0         0         0
         0         0         0         0         0         0         0         0
         0         0         0         0         0         0         0         0
         0         0         0         0         0         0         0         0
         0         0         0         0         0         0         0         0
         0         0         0         0         0         0         0         0
         0         0         0         0         0         0         0         0
         0         0         0         0         0         0         0         0
         0         0         0         0         0         0         0         0
         0         0         0         0         0         0         0         0
         0         0         0         0         0         0         0         0
         0         0         0         0         0         0         0         0
         0         0         0         0         0         0         0         0
         0         0         0         0         0         0         0         0
         0         0         0         0         0         0         0         0
         0         0         0         0         0         0         0         0
         0         0         0         0         0         0         0         0
         0         0         0         0         0         0         0         0
         0         0         0         0         0         0         0         0
         0         0         0         0         0         0         0         0
         0         0         0         0         0         0         0         0
         0         0         0         0         0         0         0         0
         0         0         0         0         0         0         0         0
         0         0         0         0         0         0         0         0
         0         0         0         0         0         0         0         0
         0         0         0         0         0         0         0         0
         0         0         0         0         0         0         0         0
         0         0         0         0         0         0         0         0
         0         0         0         0         0         0         0         0
         0         0         0         0         0         0         0         0
         0         0         0         0         0         0         0         0
         0         0         0         0         0         0         0         0
         0         0         0         0         0         0         0         0
         0         0         0         0         0         0         0         0
         0         0         0         0         0         0         0         0
         0         0         0         0         0         0         0         0
         0         0         0         0         0         0         0         0
         0         0         0         0         0         0         0         0
         0         0         0         0         0         0         0         0
         0         0         0         0         0         0         0         0
         0         0         0         0         0         0         0         0
         0         0         0         0         0         0         0         0
         0         0         0         0         0         0         0         0
         0         0         0         0         0         0         0         0
         0         0         0         0         0         0         0         0
         0         0         0         0         0         0         0         0
         0         0         0         0         0         0         0         0
         0         0         0         0         0         0         0         0
         0         0         0         0         0         0         0         0
         0         0         0         0         0         0         0         0
         0         0         0         0         0         0         0         0
         0         0         0         0         0         0         0         0
         0         0         0         0         0         0         0         0
         0         0         0         0         0         0         0         0
         0         0         0         0         0         0         0         0
         0         0         0         0         0         0         0         0
         0         0         0         0         0         0         0         0
         0         0         0         0         0         0         0         0
         0         0         0         0         0         0         0         0
         0         0         0         0         0         0         0         0
         0         0         0         0         0         0         0         0
         0         0         0         0         0         0         0         0
         0         0         0         0         0         0         0         0
         0         0         0         0         0         0         0         0
         0         0         0         0         0         0         0         0
         0         0         0         0         0         0         0         0
         0         0         0         0         0         0         0         0
         0         0         0         0         0         0         0         0
         0         0         0         0         0         0         0         0
         0         0         0         0         0         0         0         0
         0         0         0         0         0         0         0         0
         0         0         0         0         0         0         0         0
         0         0         0         0         0         0         0         0
         0         0         0         0         0         0         0         0
         0         0         0         0         0         0         0         0
         0         0         0         0         0         0         0         0
         0         0         0         0         0         0         0         0
         0         0         0         0         0         0         0         0
         0         0         0         0         0         0         0         0
         0         0         0         0         0         0         0         0
         0         0         0         0         0         0         0         0
         0         0         0         0         0         0         0         0
         0         0         0         0         0         0         0         0
         0         0         0         0         0         0         0         0
         0         0         0         0         0         0         0         0
         0         0         0         0         0         0         0         0
         0         0         0         0         0         0         0         0
         0         0         0         0         0         0         0         0
         0         0         0         0         0         0         0         0
         0         0         0         0         0         0         0         0
         0         0         0         0         0         0         0         0
         0         0         0         0         0         0         0         0
         0         0         0         0         0         0         0         0
         0         0         0         0         0         0         0         0
         0         0         0         0         0         0         0         0
         0         0         0         0         0         0         0         0
         0         0         0         0         0         0         0         0
         0         0         0         0         0         0         0         0
         0         0         0         0         0         0         0         0
         0         0         0         0         0         0         0         0
         0         0         0         0         0         0         0         0
         0         0         0         0         0         0         0         0
         0         0         0         0         0         0         0         0
         0         0         0         0         0         0         0         0
         0         0         0         0         0         0         0         0
         0         0         0         0         0         0         0         0
         0         0         0         0         0         0         0         0
         0         0         0         0         0         0         0         0
         0         0         0         0         0         0         0         0
         0         0         0         0         0         0         0         0
         0         0         0         0         0         0         0         0
         0         0         0         0         0         0         0         0
         0         0         0         0         0         0         0         0
         0         0         0         0         0         0         0         0
         0         0         0         0         0         0         0         0
         0         0         0         0         0         0         0         0
         0         0         0         0         0         0         0         0
         0         0         0         0         0         0         0         0
         0         0         0         0         0         0         0         0
         0         0         0         0         0         0         0         0
         0         0         0         0         0         0         0         0
         0         0         0         0         0         0         0         0
         0         0         0         0         0         0         0         0
         0         0         0         0         0         0         0         0
         0         0         0         0         0         0         0         0
         0         0         0         0         0         0         0         0
         0         0         0         0         0         0         0         0
         0         0         0         0         0         0         0         0
         0         0         0         0         0         0         0         0
         0         0         0         0         0         0         0         0
         0         0         0         0         0         0         0         0
         0         0         0         0         0         0         0         0
         0         0         0         0         0         0         0         0
         0         0         0         0         0         0         0         0
         0         0         0         0         0         0         0         0
         0         0         0         0         0         0         0         0
         0         0         0         0         0         0         0         0
         0         0         0         0         0         0         0         0
         0         0         0         0         0         0         0         0
         0         0         0         0         0         0         0         0
         0         0         0         0         0         0         0         0
         0         0         0         0         0         0         0         0
         0         0         0         0         0         0         0         0
         0         0         0         0         0         0         0         0
         0         0         0         0         0         0         0         0
         0         0         0         0         0         0         0         0
         0         0         0         0         0         0         0         0
         0         0         0         0         0         0         0         0
         0         0         0         0         0         0         0         0
         0         0         0         0         0         0         0         0
         0         0         0         0         0         0         0         0
         0         0         0         0         0         0         0         0
         0         0         0         0         0         0         0         0
         0         0         0         0         0         0         0         0
         0         0         0         0         0         0         0         0
         0         0         0         0         0         0         0         0
         0         0         0         0         0         0         0         0
         0         0         0         0         0         0         0         0
         0         0         0         0         0         0         0         0
         0         0         0         0         0         0         0         0
         0         0         0         0         0         0         0         0
         0         0         0         0         0         0         0         0
         0         0         0         0         0         0         0         0
         0         0         0         0         0         0         0         0
         0         0         0         0         0         0         0         0
         0         0         0         0         0         0         0         0
         0         0         0         0         0         0         0         0
         0         0         0         0         0         0         0         0
         0         0         0         0         0         0         0         0
         0         0         0         0         0         0         0         0
         0         0         0         0         0         0         0         0
         0         0         0         0         0         0         0         0
         0         0         0         0         0         0         0         0
         0         0         0         0         0         0         0         0
         0         0         0         0         0         0         0         0
         0         0         0         0         0         0         0         0
         0         0         0         0         0         0         0         0
         0         0         0         0         0         0         0         0
         0         0         0         0         0         0         0         0
         0         0         0         0         0         0         0         0
         0         0         0         0         0         0         0         0
         0         0         0         0         0         0         0         0
         0         0         0         0         0         0         0         0
         0         0         0         0         0         0         0         0
         0         0         0         0         0         0         0         0
         0         0         0         0         0         0         0         0
         0         0         0         0         0         0         0         0
         0         0         0         0         0         0         0         0
         0         0         0         0         0         0         0         0
         0         0         0         0         0         0         0         0
         0         0         0         0         0         0         0         0
         0         0         0         0         0         0         0         0
         0         0         0         0         0         0         0         0
         0         0         0         0         0         0         0         0
         0         0         0         0         0         0         0         0
         0         0         0         0         0         0         0         0
         0         0         0         0         0         0         0         0
         0         0         0         0         0         0         0         0
         0         0         0         0         0         0         0         0
         0         0         0         0         0         0         0         0
         0         0         0         0         0         0         0         0
         0         0         0         0         0         0         0         0
         0         0         0         0         0         0         0         0
         0         0         0         0         0         0         0         0
         0         0         0         0         0         0         0         0
         0         0         0         0         0         0         0         0
         0         0         0         0         0         0         0         0
         0         0         0         0         0         0         0         0
         0         0         0         0         0         0         0         0
         0         0         0         0         0         0         0         0
         0         0         0         0         0         0         0         0
         0         0         0         0         0         0         0         0
         0         0         0         0         0         0         0         0
         0         0         0         0         0         0         0         0
         0         0         0         0         0         0         0         0
         0         0         0         0         0         0         0         0
         0         0         0         0         0         0         0         0
         0         0         0         0         0         0         0         0
         0         0         0         0         0         0         0         0
         0         0         0         0         0         0         0         0
         0         0         0         0         0         0         0         0
         0         0         0         0         0         0         0         0
         0         0         0         0         0         0         0         0
         0         0         0         0         0         0         0         0
         0         0         0         0         0         0         0         0
         0         0         0         0         0         0         0         0
         0         0         0         0         0         0         0         0
         0         0         0         0         0         0         0         0
         0         0         0         0         0         0         0         0
         0         0         0         0         0         0         0         0
         0         0         0         0         0         0         0         0
         0         0         0         0         0         0         0         0
         0         0         0         0         0         0         0         0
         0         0         0         0         0         0         0         0
         0         0         0         0         0         0         0         0
         0         0         0         0         0         0         0         0
         0         0         0         0         0         0         0         0
         0         0         0         0         0         0         0         0
         0         0         0         0         0         0         0         0
         0         0         0         0         0         0         0         0
         0         0         0         0         0         0         0         0
         0         0         0         0         0         0         0         0
         0         0         0         0         0         0         0         0
         0         0         0         0         0         0         0         0
         0         0         0         0         0         0         0         0
         0         0         0         0         0         0         0         0
         0         0         0         0         0         0         0         0
         0         0         0         0         0         0         0         0
         0         0         0         0         0         0         0         0
         0         0         0         0         0         0         0         0
         0         0         0         0         0         0         0         0
         0         0         0         0         0         0         0         0
         0         0         0         0         0         0         0         0
         0         0         0         0         0         0         0         0
         0         0         0         0         0         0         0         0
         0         0         0         0         0         0         0         0
         0         0         0         0         0         0         0         0
         0         0         0         0         0         0         0         0
         0         0         0         0         0         0         0         0
         0         0         0         0         0         0         0         0
         0         0         0         0         0         0         0         0
         0         0         0         0         0         0         0         0
         0         0         0         0         0         0         0         0
         0         0         0         0         0         0         0         0
         0         0         0         0         0         0         0         0
         0         0         0         0         0         0         0         0
         0         0         0         0         0         0         0         0
         0         0         0         0         0         0         0         0
         0         0         0         0         0         0         0         0
         0         0         0         0         0         0         0         0
         0         0         0         0         0         0         0         0
         0         0         0         0         0         0         0         0
         0         0         0         0         0         0         0         0
         0         0         0         0         0         0         0         0
         0         0         0         0         0         0         0         0
         0         0         0         0         0         0         0         0
         0         0         0         0         0         0         0         0
         0         0         0         0         0         0         0         0
         0         0         0         0         0         0         0         0
         0         0         0         0         0         0         0         0
         0         0         0         0         0         0         0         0
         0         0         0         0         0         0         0         0
         0         0         0         0         0         0         0         0
         0         0         0         0         0         0         0         0
         0         0         0         0         0         0         0         0
         0         0         0         0         0         0         0         0
         0         0         0         0         0         0         0         0
         0         0         0         0         0         0         0         0
         0         0         0         0         0         0         0         0
         0         0         0         0         0         0         0         0
         0         0         0         0         0         0         0         0
         0         0         0         0         0         0         0         0
         0         0         0         0         0         0         0         0
         0         0         0         0         0         0         0         0
         0         0         0         0         0         0         0         0
         0         0         0         0         0         0         0         0
         0         0         0         0         0         0         0         0
         0         0         0         0         0         0         0         0
         0         0         0         0         0         0         0         0
         0         0         0         0         0         0         0         0
         0         0         0         0         0         0         0         0
         0         0         0         0         0         0         0         0
         0         0         0         0         0         0         0         0
         0         0         0         0         0         0         0         0
         0         0         0         0         0         0         0         0
         0         0         0         0         0         0         0         0
         0         0         0         0         0         0         0         0
         0         0         0         0         0         0         0         0
         0         0         0         0         0         0         0         0
         0         0         0         0         0         0         0         0
         0         0         0         0         0         0         0         0
         0         0         0         0         0         0         0         0
         0         0         0         0         0         0         0         0
         0         0         0         0         0         0         0         0
         0         0         0         0         0         0         0         0
         0         0         0         0         0         0         0         0
         0         0         0         0         0         0         0         0
         0         0         0         0         0         0         0         0
         0         0         0         0         0         0         0         0
         0         0         0         0         0         0         0         0
         0         0         0         0         0         0         0         0
         0         0         0         0         0         0         0         0
         0         0         0         0         0         0         0         0
         0         0         0         0         0         0         0         0
         0         0         0         0         0         0         0         0
         0         0         0         0         0         0         0         0
         0         0         0         0         0         0         0         0
         0         0         0         0         0         0         0         0
         0         0         0         0         0         0         0         0
         0         0         0         0         0         0         0         0
         0         0         0         0         0         0         0         0
         0         0         0         0         0         0         0         0
         0         0         0         0         0         0         0         0
         0         0         0         0         0         0         0         0
         0         0         0         0         0         0         0         0
         0         0         0         0         0         0         0         0
         0         0         0         0         0         0         0         0
         0         0         0         0         0         0         0         0
         0         0         0         0         0         0         0         0
         0         0         0         0         0         0         0         0
         0         0         0         0         0         0         0         0
         0         0         0         0         0         0         0         0
         0         0         0         0         0         0         0         0
         0         0         0         0         0         0         0         0
         0         0         0         0         0         0         0         0
         0         0         0         0         0         0         0         0
         0         0         0         0         0         0         0         0
         0         0         0         0         0         0         0         0
         0         0         0         0         0         0         0         0
         0         0         0         0         0         0         0         0
         0         0         0         0         0         0         0         0
         0         0         0         0         0         0         0         0
         0         0         0         0         0         0         0         0
         0         0         0         0         0         0         0         0
         0         0         0         0         0         0         0         0
         0         0         0         0         0         0         0         0
         0         0         0         0         0         0         0         0
         0         0         0         0         0         0         0         0
         0         0         0         0         0         0         0         0
         0         0         0         0         0         0         0         0
         0         0         0         0         0         0         0         0
         0         0         0         0         0         0         0         0
         0         0         0         0         0         0         0         0
         0         0         0         0         0         0         0         0
         0         0         0         0         0         0         0         0
         0         0         0         0         0         0         0         0
         0         0         0         0         0         0         0         0
         0         0         0         0         0         0         0         0
         0         0         0         0         0         0         0         0
         0         0         0         0         0         0         0         0
         0         0         0         0         0         0         0         0
         0         0         0         0         0         0         0         0
         0         0         0         0         0         0         0         0
         0         0         0         0         0         0         0         0
         0         0         0         0         0         0         0         0
         0         0         0         0         0         0         0         0
         0         0         0         0         0         0         0         0
         0         0         0         0         0         0         0         0
         0         0         0         0         0         0         0         0
         0         0         0         0         0         0         0         0
         0         0         0         0         0         0         0         0
         0         0         0         0         0         0         0         0
         0         0         0         0         0         0         0         0
         0         0         0         0         0         0         0         0
         0         0         0         0         0         0         0         0
         0         0         0         0         0         0         0         0
         0         0         0         0         0         0         0         0
         0         0         0         0         0         0         0         0
         0         0         0         0         0         0         0         0
         0         0         0         0         0         0         0         0
         0         0         0         0         0         0         0         0
         0         0         0         0         0         0         0         0
         0         0         0         0         0         0         0         0
         0         0         0         0         0         0         0         0
         0         0         0         0         0         0         0         0
         0         0         0         0         0         0         0         0
         0         0         0         0         0         0         0         0
         0         0         0         0         0         0         0         0
         0         0         0         0         0         0         0         0
         0         0         0         0         0         0         0         0
         0         0         0         0         0         0         0         0
         0         0         0         0         0         0         0         0
         0         0         0         0         0         0         0         0
         0         0         0         0         0         0         0         0
         0         0         0         0         0         0         0         0
         0         0         0         0         0         0         0         0
         0         0         0         0         0         0         0         0
         0         0         0         0         0         0         0         0
         0         0         0         0         0         0         0         0
         0         0         0         0         0         0         0         0
         0         0         0         0         0         0         0         0
         0         0         0         0         0         0         0         0
         0         0         0         0         0         0         0         0
         0         0         0         0         0         0         0         0
         0         0         0         0         0         0         0         0
         0         0         0         0         0         0         0         0
         0         0         0         0         0         0         0         0
         0         0         0         0         0         0         0         0
         0         0         0         0         0         0         0         0
         0         0         0         0         0         0         0         0
         0         0         0         0         0         0         0         0
         0         0         0         0         0         0         0         0
         0         0         0         0         0         0         0         0
         0         0         0         0         0         0         0         0
         0         0         0         0         0         0         0         0
         0         0         0         0         0         0         0         0
         0         0         0         0         0         0         0         0
         0         0         0         0         0         0         0         0
         0         0         0         0         0         0         0         0
         0         0         0         0         0         0         0         0
         0         0         0         0         0         0         0         0
         0         0         0         0         0         0         0         0
         0         0         0         0         0         0         0         0
         0         0         0         0         0         0         0         0
         0         0         0         0         0         0         0         0
         0         0         0         0         0         0         0         0
         0         0         0         0         0         0         0         0
         0         0         0         0         0         0         0         0
         0         0         0         0         0         0         0         0
         0         0         0         0         0         0         0         0
         0         0         0         0         0         0         0         0
         0         0         0         0         0         0         0         0
         0         0         0         0         0         0         0         0
         0         0         0         0         0         0         0         0
         0         0         0         0         0         0         0         0
         0         0         0         0         0         0         0         0
         0         0         0         0         0         0         0         0
         0         0         0         0         0         0         0         0
         0         0         0         0         0         0         0         0
         0         0         0         0         0         0         0         0
         0         0         0         0         0         0         0         0
         0         0         0         0         0         0         0         0
         0         0         0         0         0         0         0         0
         0         0         0         0         0         0         0         0
         0         0         0         0         0         0         0         0
         0         0         0         0         0         0         0         0
         0         0         0         0         0         0         0         0
         0         0         0         0         0         0         0         0
         0         0         0         0         0         0         0         0
         0         0         0         0         0         0         0         0
         0         0         0         0         0         0         0         0
         0         0         0         0         0         0         0         0
         0         0         0         0         0         0         0         0
         0         0         0         0         0         0         0         0
         0         0         0         0         0         0         0         0
         0         0         0         0         0         0         0         0
         0         0         0         0         0         0         0         0
         0         0         0         0         0         0         0         0
         0         0         0         0         0         0         0         0
         0         0         0         0         0         0         0         0
         0         0         0         0         0         0         0         0
         0         0         0         0         0         0         0         0
         0         0         0         0         0         0         0         0
         0         0         0         0         0         0         0         0
         0         0         0         0         0         0         0         0
         0         0         0         0         0         0         0         0
         0         0         0         0         0         0         0         0
         0         0         0         0         0         0         0         0
         0         0         0         0         0         0         0         0
         0         0         0         0         0         0         0         0
         0         0         0         0         0         0         0         0
         0         0         0         0         0         0         0         0
         0         0         0         0         0         0         0         0
         0         0         0         0         0         0         0         0
         0         0         0         0         0         0         0         0
         0         0         0         0         0         0         0         0
         0         0         0         0         0         0         0         0
         0         0         0         0         0         0         0         0
         0         0         0         0         0         0         0         0
         0         0         0         0         0         0         0         0
         0         0         0         0         0         0         0         0
         0         0         0         0         0         0         0         0
         0         0         0         0         0         0         0         0
         0         0         0         0         0         0         0         0
         0         0         0         0         0         0         0         0
         0         0         0         0         0         0         0         0
         0         0         0         0         0         0         0         0
         0         0         0         0         0         0         0         0
         0         0         0         0         0         0         0         0
         0         0         0         0         0         0         0         0
         0         0         0         0         0         0         0         0
         0         0         0         0         0         0         0         0
         0         0         0         0         0         0         0         0
         0         0         0         0         0         0         0         0
         0         0         0         0         0         0         0         0
         0         0         0         0         0         0         0         0
         0         0         0         0         0         0         0         0
         0         0         0         0         0         0         0         0
         0         0         0         0         0         0         0         0
         0         0         0         0         0         0         0         0
         0         0         0         0         0         0         0         0
         0         0         0         0         0         0         0         0
         0         0         0         0         0         0         0         0
         0         0         0         0         0         0         0         0
         0         0         0         0         0         0         0         0
         0         0         0         0         0         0         0         0
         0         0         0         0         0         0         0         0
         0         0         0         0         0         0         0         0
         0         0         0         0         0         0         0         0
         0         0         0         0         0         0         0         0
         0         0         0         0         0         0         0         0
         0         0         0         0         0         0         0         0
         0         0         0         0         0         0         0         0
         0         0         0         0         0         0         0         0
         0         0         0         0         0         0         0         0
         0         0         0         0         0         0         0         0
         0         0         0         0         0         0         0         0
         0         0         0         0         0         0         0         0
         0         0         0         0         0         0         0         0
         0         0         0         0         0         0         0         0
         0         0         0         0         0         0         0         0
         0         0         0         0         0         0         0         0
         0         0         0         0         0         0         0         0
         0         0         0         0         0         0         0         0
         0         0         0         0         0         0         0         0
         0         0         0         0         0         0         0         0
         0         0         0         0         0         0         0         0
         0         0         0         0         0         0         0         0
         0         0         0         0         0         0         0         0
         0         0         0         0         0         0         0         0
         0         0         0         0         0         0         0         0
         0         0         0         0         0         0         0         0
         0         0         0         0         0         0         0         0
         0         0         0         0         0         0         0         0
         0         0         0         0         0         0         0         0
         0         0         0         0         0         0         0         0
         0         0         0         0         0         0         0         0
         0         0         0         0         0         0         0         0
         0         0         0         0         0         0         0         0
         0         0         0         0         0         0         0         0
         0         0         0         0         0         0         0         0
         0         0         0         0         0         0         0         0
         0         0         0         0         0         0         0         0
         0         0         0         0         0         0         0         0
         0         0         0         0         0         0         0         0
         0         0         0         0         0         0         0         0
         0         0         0         0         0         0         0         0
         0         0         0         0         0         0         0         0
         0         0         0         0         0         0         0         0
         0         0         0         0         0         0         0         0
         0         0         0         0         0         0         0         0
         0         0         0         0         0         0         0         0
         0         0         0         0         0         0         0         0
         0         0         0         0         0         0         0         0
         0         0         0         0         0         0         0         0
         0         0         0         0         0         0         0         0
         0         0         0         0         0         0         0         0
         0         0         0         0         0         0         0         0
         0         0         0         0         0         0         0         0
         0         0         0         0         0         0         0         0
         0         0         0         0         0         0         0         0
         0         0         0         0         0         0         0         0
         0         0         0         0         0         0         0         0
         0         0         0         0         0         0         0         0
         0         0         0         0         0         0         0         0
         0         0         0         0         0         0         0         0
         0         0         0         0         0         0         0         0
         0         0         0         0         0         0         0         0
         0         0         0         0         0         0         0         0
         0         0         0         0         0         0         0         0
         0         0         0         0         0         0         0         0
         0         0         0         0         0         0         0         0
         0         0         0         0         0         0         0         0
         0         0         0         0         0         0         0         0
         0         0         0         0         0         0         0         0
         0         0         0         0         0         0         0         0
         0         0         0         0         0         0         0         0
         0         0         0         0         0         0         0         0
         0         0         0         0         0         0         0         0
         0         0         0         0         0         0         0         0
         0         0         0         0         0         0         0         0
         0         0         0         0         0         0         0         0
         0         0         0         0         0         0         0         0
         0         0         0         0         0         0         0         0
         0         0         0         0         0         0         0         0
         0         0         0         0         0         0         0         0
         0         0         0         0         0         0         0         0
         0         0         0         0         0         0         0         0
         0         0         0         0         0         0         0         0
         0         0         0         0         0         0         0         0
         0         0         0         0         0         0         0         0
         0         0         0         0         0         0         0         0
         0         0         0         0         0         0         0         0
         0         0         0         0         0         0         0         0
         0         0         0         0         0         0         0         0
         0         0         0         0         0         0         0         0
         0         0         0         0         0         0         0         0
         0         0         0         0         0         0         0         0
         0         0         0         0         0         0         0         0
         0         0         0         0         0         0         0         0
         0         0         0         0         0         0         0         0
         0         0         0         0         0         0         0         0
         0         0         0         0         0         0         0         0
         0         0         0         0         0         0         0         0
         0         0         0         0         0         0         0         0
         0         0         0         0         0         0         0         0
         0         0         0         0         0         0         0         0
         0         0         0         0         0         0         0         0
         0         0         0         0         0         0         0         0
         0         0         0         0         0         0         0         0
         0         0         0         0         0         0         0         0
         0         0         0         0         0         0         0         0
         0         0         0         0         0         0         0         0
         0         0         0         0         0         0         0         0
         0         0         0         0         0         0         0         0
         0         0         0         0         0         0         0         0
         0         0         0         0         0         0         0         0
         0         0         0         0         0         0         0         0
         0         0         0         0         0         0         0         0
         0         0         0         0         0         0         0         0
         0         0         0         0         0         0         0         0
         0         0         0         0         0         0         0         0
         0         0         0         0         0         0         0         0
         0         0         0         0         0         0         0         0
         0         0         0         0         0         0         0         0
         0         0         0         0         0         0         0         0
         0         0         0         0         0         0         0         0
         0         0         0         0         0         0         0         0
         0         0         0         0         0         0         0         0
         0         0         0         0         0         0         0         0
         0         0         0         0         0         0         0         0
         0         0         0         0         0         0         0         0
         0         0         0         0         0         0         0         0
         0         0         0         0         0         0         0         0
         0         0         0         0         0         0         0         0
         0         0         0         0         0         0         0         0
         0         0         0         0         0         0         0         0
         0         0         0         0         0         0         0         0
         0         0         0         0         0         0         0         0
         0         0         0         0         0         0         0         0
         0         0         0         0         0         0         0         0
         0         0         0         0         0         0         0         0
         0         0         0         0         0         0         0         0
         0         0         0         0         0         0         0         0
         0         0         0         0         0         0         0         0
         0         0         0         0         0         0         0         0
         0         0         0         0         0         0         0         0
         0         0         0         0         0         0         0         0
         0         0         0         0         0         0         0         0
         0         0         0         0         0         0         0         0
         0         0         0         0         0         0         0         0
         0         0         0         0         0         0         0         0
         0         0         0         0         0         0         0         0
         0         0         0         0         0         0         0         0
         0         0         0         0         0         0         0         0
         0         0         0         0         0         0         0         0
         0         0         0         0         0         0         0         0
         0         0         0         0         0         0         0         0
         0         0         0         0         0         0         0         0
         0         0         0         0         0         0         0         0
         0         0         0         0         0         0         0         0
         0         0         0         0         0         0         0         0
         0         0         0         0         0         0         0         0
         0         0         0         0         0         0         0         0
         0         0         0         0         0         0         0         0
         0         0         0         0         0         0         0         0
         0         0         0         0         0         0         0         0
         0         0         0         0         0         0         0         0
         0         0         0         0         0         0         0         0
         0         0         0         0         0         0         0         0
         0         0         0         0         0         0         0         0
         0         0         0         0         0         0         0         0
         0         0         0         0         0         0         0         0
         0         0         0         0         0         0         0         0
         0         0         0         0         0         0         0         0
         0         0         0         0         0         0         0         0
         0         0         0         0         0         0         0         0
         0         0         0         0         0         0         0         0
         0         0         0         0         0         0         0         0
         0         0         0         0         0         0         0         0
         0         0         0         0         0         0         0         0
         0         0         0         0         0         0         0         0
         0         0         0         0         0         0         0         0
         0         0         0         0         0         0         0         0
         0         0         0         0         0         0         0         0
         0         0         0         0         0         0         0         0
         0         0         0         0         0         0         0         0
         0         0         0         0         0         0         0         0
         0         0         0         0         0         0         0         0
         0         0         0         0         0         0         0         0
         0         0         0         0         0         0         0         0
         0         0         0         0         0         0         0         0
         0         0         0         0         0         0         0         0
         0         0         0         0         0         0         0         0
         0         0         0         0         0         0         0         0
         0         0         0         0         0         0         0         0
         0         0         0         0         0         0         0         0
         0         0         0         0         0         0         0         0
         0         0         0         0         0         0         0         0
         0         0         0         0         0         0         0         0
         0         0         0         0         0         0         0         0
         0         0         0         0         0         0         0         0
         0         0         0         0         0         0         0         0
         0         0         0         0         0         0         0         0
         0         0         0         0         0         0         0         0
         0         0         0         0         0         0         0         0
         0         0         0         0         0         0         0         0
         0         0         0         0         0         0         0         0
         0         0         0         0         0         0         0         0
         0         0         0         0         0         0         0         0
         0         0         0         0         0         0         0         0
         0         0         0         0         0         0         0         0
         0         0         0         0         0         0         0         0
         0         0         0         0         0         0         0         0
         0         0         0         0         0         0         0         0
         0         0         0         0         0         0         0         0
         0         0         0         0         0         0         0         0
         0         0         0         0         0         0         0         0
         0         0         0         0         0         0         0         0
         0         0         0         0         0         0         0         0
         0         0         0         0         0         0         0         0
         0         0         0         0         0         0         0         0
         0         0         0         0         0         0         0         0
         0         0         0         0         0         0         0         0
         0         0         0         0         0         0         0         0
         0         0         0         0         0         0         0         0
         0         0         0         0         0         0         0         0
         0         0         0         0         0         0         0         0
         0         0         0         0         0         0         0         0
         0         0         0         0         0         0         0         0
         0         0         0         0         0         0         0         0
         0         0         0         0         0         0         0         0
         0         0         0         0         0         0         0         0
         0         0         0         0         0         0         0         0
         0         0         0         0         0         0         0         0
         0         0         0         0         0         0         0         0
         0         0         0         0         0         0         0         0
         0         0         0         0         0         0         0         0
         0         0         0         0         0         0         0         0
         0         0         0         0         0         0         0         0
         0         0         0         0         0         0         0         0
         0         0         0         0         0         0         0         0
         0         0         0         0         0         0         0         0
         0         0         0         0         0         0         0         0
         0         0         0         0         0         0         0         0
         0         0         0         0         0         0         0         0
         0         0         0         0         0         0         0         0
         0         0         0         0         0         0         0         0
         0         0         0         0         0         0         0         0
         0         0         0         0         0         0         0         0
         0         0         0         0         0         0         0         0
         0         0         0         0         0         0         0         0
         0         0         0         0         0         0         0         0
         0         0         0         0         0         0         0         0
         0         0         0         0         0         0         0         0
         0         0         0         0         0         0         0         0
         0         0         0         0         0         0         0         0
         0         0         0         0         0         0         0         0
         0         0         0         0         0         0         0         0
         0         0         0         0         0         0         0         0
         0         0         0         0         0         0         0         0
         0         0         0         0         0         0         0         0
         0         0         0         0         0         0         0         0
         0         0         0         0         0         0         0         0
         0         0         0         0         0         0         0         0
         0         0         0         0         0         0         0         0
         0         0         0         0         0         0         0         0
         0         0         0         0         0         0         0         0
         0         0         0         0         0         0         0         0
         0         0         0         0         0         0         0         0
         0         0         0         0         0         0         0         0
         0         0         0         0         0         0         0         0
         0         0         0         0         0         0         0         0
         0         0         0         0         0         0         0         0
         0         0         0         0         0         0         0         0
         0         0         0         0         0         0         0         0
         0         0         0         0         0         0         0         0
         0         0         0         0         0         0         0         0
         0         0         0         0         0         0         0         0
         0         0         0         0         0         0         0         0
         0         0         0         0         0         0         0         0
         0         0         0         0         0         0         0         0
         0         0         0         0         0         0         0         0
         0         0         0         0         0         0         0         0
         0         0         0         0         0         0         0         0
         0         0         0         0         0         0         0         0
         0         0         0         0         0         0         0         0
         0         0         0         0         0         0         0         0
         0         0         0         0         0         0         0         0
         0         0         0         0         0         0         0         0
         0         0         0         0         0         0         0         0
         0         0         0         0         0         0         0         0
         0         0         0         0         0         0         0         0
         0         0         0         0         0         0         0         0
         0         0         0         0         0         0         0         0
         0         0         0         0         0         0         0         0
         0         0         0         0         0         0         0         0
         0         0         0         0         0         0         0         0
         0         0         0         0         0         0         0         0
         0         0         0         0         0         0         0         0
         0         0         0         0         0         0         0         0
         0         0         0         0         0         0         0         0
         0         0         0         0         0         0         0         0
         0         0         0         0         0         0         0         0
         0         0         0         0         0         0         0         0
         0         0         0         0         0         0         0         0
         0         0         0         0         0         0         0         0
         0         0         0         0         0         0         0         0
         0         0         0         0         0         0         0         0
         0         0         0         0         0         0         0         0
         0         0         0         0         0         0         0         0
         0         0         0         0         0         0         0         0
         0         0         0         0         0         0         0         0
         0         0         0         0         0         0         0         0
         0         0         0         0         0         0         0         0
         0         0         0         0         0         0         0         0
         0         0         0         0         0         0         0         0
         0         0         0         0         0         0         0         0
         0         0         0         0         0         0         0         0
         0         0         0         0         0         0         0         0
         0         0         0         0         0         0         0         0
         0         0         0         0         0         0         0         0
         0         0         0         0         0         0         0         0
         0         0         0         0         0         0         0         0
         0         0         0         0         0         0         0         0
         0         0         0         0         0         0         0         0
         0         0         0         0         0         0         0         0
         0         0         0         0         0         0         0         0
         0         0         0         0         0         0         0         0
         0         0         0         0         0         0         0         0
         0         0         0         0         0         0         0         0
         0         0         0         0         0         0         0         0
         0         0         0         0         0         0         0         0
         0         0         0         0         0         0         0         0
         0         0         0         0         0         0         0         0
         0         0         0         0         0         0         0         0
         0         0         0         0         0         0         0         0
         0         0         0         0         0         0         0         0
         0         0         0         0         0         0         0         0
         0         0         0         0         0         0         0         0
         0         0         0         0         0         0         0         0
         0         0         0         0         0         0         0         0
         0         0         0         0         0         0         0         0
         0         0         0         0         0         0         0         0
         0         0         0         0         0         0         0         0
         0         0         0         0         0         0         0         0
         0         0         0         0         0         0         0         0
         0         0         0         0         0         0         0         0
         0         0         0         0         0         0         0         0
         0         0         0         0         0         0         0         0
         0         0         0         0         0         0         0         0
         0         0         0         0         0         0         0         0
         0         0         0         0         0         0         0         0
         0         0         0         0         0         0         0         0
         0         0         0         0         0         0         0         0
         0         0         0         0         0         0         0         0
         0         0         0         0         0         0         0         0
         0         0         0         0         0         0         0         0
         0         0         0         0         0         0         0         0
         0         0         0         0         0         0         0         0
         0         0         0         0         0         0         0         0
         0         0         0         0         0         0         0         0
         0         0         0         0         0         0         0         0
         0         0         0         0         0         0         0         0
         0         0         0         0         0         0         0         0
         0         0         0         0         0         0         0         0
         0         0         0         0         0         0         0         0
         0         0         0         0         0         0         0         0
         0         0         0         0         0         0         0         0
         0         0         0         0         0         0         0         0
         0         0         0         0         0         0         0         0
         0         0         0         0         0         0         0         0
         0         0         0         0         0         0         0         0
         0         0         0         0         0         0         0         0
         0         0         0         0         0         0         0         0
         0         0         0         0         0         0         0         0
         0         0         0         0         0         0         0         0
         0         0         0         0         0         0         0         0
         0         0         0         0         0         0         0         0
         0         0         0         0         0         0         0         0
         0         0         0         0         0         0         0         0
         0         0         0         0         0         0         0         0
         0         0         0         0         0         0         0         0
         0         0         0         0         0         0         0         0
         0         0         0         0         0         0         0         0
         0         0         0         0         0         0         0         0
         0         0         0         0         0         0         0         0
         0         0         0         0         0         0         0         0
         0         0         0         0         0         0         0         0
         0         0         0         0         0         0         0         0
         0         0         0         0         0         0         0         0
         0         0         0         0         0         0         0         0
         0         0         0         0         0         0         0         0
         0         0         0         0         0         0         0         0
         0         0         0         0         0         0         0         0
         0         0         0         0         0         0         0         0
         0         0         0         0         0         0         0         0
         0         0         0         0         0         0         0         0
         0         0         0         0         0         0         0         0
         0         0         0         0         0         0         0         0
         0         0         0         0         0         0         0         0
         0         0         0         0         0         0         0         0
         0         0         0         0         0         0         0         0
         0         0         0         0         0         0         0         0
         0         0         0         0         0         0         0         0
         0         0         0         0         0         0         0         0
         0         0         0         0         0         0         0         0
         0         0         0         0         0         0         0         0
         0         0         0         0         0         0         0         0
         0         0         0         0         0         0         0         0
         0         0         0         0         0         0         0         0
         0         0         0         0         0         0         0         0
         0         0         0         0         0         0         0         0
         0         0         0         0         0         0         0         0
         0         0         0         0         0         0         0         0
         0         0         0         0         0         0         0         0
         0         0         0         0         0         0         0         0
         0         0         0         0         0         0         0         0
         0         0         0         0         0         0         0         0
         0         0         0         0         0         0         0         0
         0         0         0         0         0         0         0         0
         0         0         0         0         0         0         0         0
         0         0         0         0         0         0         0         0
         0         0         0         0         0         0         0         0
         0         0         0         0         0         0         0         0
         0         0         0         0         0         0         0         0
         0         0         0         0         0         0         0         0
         0         0         0         0         0         0         0         0
         0         0         0         0         0         0         0         0
         0         0         0         0         0         0         0         0
         0         0         0         0         0         0         0         0
         0         0         0         0         0         0         0         0
         0         0         0         0         0         0         0         0
         0         0         0         0         0         0         0         0
         0         0         0         0         0         0         0         0
         0         0         0         0         0         0         0         0
         0         0         0         0         0         0         0         0
         0         0         0         0         0         0         0         0
         0         0         0         0         0         0         0         0
         0         0         0         0         0         0         0         0
         0         0         0         0         0         0         0         0
         0         0         0         0         0         0         0         0
         0         0         0         0         0         0         0         0
         0         0         0         0         0         0         0         0
         0         0         0         0         0         0         0         0
         0         0         0         0         0         0         0         0
         0         0         0         0         0         0         0         0
         0         0         0         0         0         0         0         0
         0         0         0         0         0         0         0         0
         0         0         0         0         0         0         0         0
         0         0         0         0         0         0         0         0
         0         0         0         0         0         0         0         0
         0         0         0         0         0         0         0         0
         0         0         0         0         0         0         0         0
         0         0         0         0         0         0         0         0
         0         0         0         0         0         0         0         0
         0         0         0         0         0         0         0         0
         0         0         0         0         0         0         0         0
         0         0         0         0         0         0         0         0
         0         0         0         0         0         0         0         0
         0         0         0         0         0         0         0         0
         0         0         0         0         0         0         0         0
         0         0         0         0         0         0         0         0
         0         0         0         0         0         0         0         0
         0         0         0         0         0         0         0         0
         0         0         0         0         0         0         0         0
         0         0         0         0         0         0         0         0
         0         0         0         0         0         0         0         0
         0         0         0         0         0         0         0         0
         0         0         0         0         0         0         0         0
         0         0         0         0         0         0         0         0
         0         0         0         0         0         0         0         0
         0         0         0         0         0         0         0         0
         0         0         0         0         0         0         0         0
         0         0         0         0         0         0         0         0
         0         0         0         0         0         0         0         0
         0         0         0         0         0         0         0         0
         0         0         0         0         0         0         0         0
         0         0         0         0         0         0         0         0
         0         0         0         0         0         0         0         0
         0         0         0         0         0         0         0         0
         0         0         0         0         0         0         0         0
         0         0         0         0         0         0         0         0
         0         0         0         0         0         0         0         0
         0         0         0         0         0         0         0         0
         0         0         0         0         0         0         0         0
         0         0         0         0         0         0         0         0
         0         0         0         0         0         0         0         0
         0         0         0         0         0         0         0         0
         0         0         0         0         0         0         0         0
         0         0         0         0         0         0         0         0
         0         0         0         0         0         0         0         0
         0         0         0         0         0         0         0         0
         0         0         0         0         0         0         0         0
         0         0         0         0         0         0         0         0
         0         0         0         0         0         0         0         0
         0         0         0         0         0         0         0         0
         0         0         0         0         0         0         0         0
         0         0         0         0         0         0         0         0
         0         0         0         0         0         0         0         0
         0         0         0         0         0         0         0         0
         0         0         0         0         0         0         0         0
         0         0         0         0         0         0         0         0
         0         0         0         0         0         0         0         0
         0         0         0         0         0         0         0         0
         0         0         0         0         0         0         0         0
         0         0         0         0         0         0         0         0
         0         0         0         0         0         0         0         0
         0         0         0         0         0         0         0         0
         0         0         0         0         0         0         0         0
         0         0         0         0         0         0         0         0
         0         0         0         0         0         0         0         0
         0         0         0         0         0         0         0         0
         0         0         0         0         0         0         0         0
         0         0         0         0         0         0         0         0
         0         0         0         0         0         0         0         0
         0         0         0         0         0         0         0         0
         0         0         0         0         0         0         0         0
         0         0         0         0         0         0         0         0
         0         0         0         0         0         0         0         0
         0         0         0         0         0         0         0         0
         0         0         0         0         0         0         0         0
         0         0         0         0         0         0         0         0
         0         0         0         0         0         0         0         0
         0         0         0         0         0         0         0         0
         0         0         0         0         0         0         0         0
         0         0         0         0         0         0         0         0
         0         0         0         0         0         0         0         0
         0         0         0         0         0         0         0         0
         0         0         0         0         0         0         0         0
         0         0         0         0         0         0         0         0
         0         0         0         0         0         0         0         0
         0         0         0         0         0         0         0         0
         0         0         0         0         0         0         0         0
         0         0         0         0         0         0         0         0
         0         0         0         0         0         0         0         0
         0         0         0         0         0         0         0         0
         0         0         0         0         0         0         0         0
         0         0         0         0         0         0         0         0
         0         0         0         0         0         0         0         0
         0         0         0         0         0         0         0         0
         0         0         0         0         0         0         0         0
         0         0         0         0         0         0         0         0
         0         0         0         0         0         0         0         0
         0         0         0         0         0         0         0         0
         0         0         0         0         0         0         0         0
         0         0         0         0         0         0         0         0
         0         0         0         0         0         0         0         0
         0         0         0         0         0         0         0         0
         0         0         0         0         0         0         0         0
         0         0         0         0         0         0         0         0
         0         0         0         0         0         0         0         0
         0         0         0         0         0         0         0         0
         0         0         0         0         0         0         0         0
         0         0         0         0         0         0         0         0
         0         0         0         0         0         0         0         0
         0         0         0         0         0         0         0         0
         0         0         0         0         0         0         0         0
         0         0         0         0         0         0         0         0
         0         0         0         0         0         0         0         0
         0         0         0         0         0         0         0         0
         0         0         0         0         0         0         0         0
         0         0         0         0         0         0         0         0
         0         0         0         0         0         0         0         0
         0         0         0         0         0         0         0         0
         0         0         0         0         0         0         0         0
         0         0         0         0         0         0         0         0
         0         0         0         0         0         0         0         0
         0         0         0         0         0         0         0         0
         0         0         0         0         0         0         0         0
         0         0         0         0         0         0         0         0
         0         0         0         0         0         0         0         0
         0         0         0         0         0         0         0         0
         0         0         0         0         0         0         0         0
         0         0         0         0         0         0         0         0
         0         0         0         0         0         0         0         0
         0         0         0         0         0         0         0         0
         0         0         0         0         0         0         0         0
         0         0         0         0         0         0         0         0
         0         0         0         0         0         0         0         0
         0         0         0         0         0         0         0         0
         0         0         0         0         0         0         0         0
         0         0         0         0         0         0         0         0
         0         0         0         0         0         0         0         0
         0         0         0         0         0         0         0         0
         0         0         0         0         0         0         0         0
         0         0         0         0         0         0         0         0
         0         0         0         0         0         0         0         0
         0         0         0         0         0         0         0         0
         0         0         0         0         0         0         0         0
         0         0         0         0         0         0         0         0
         0         0         0         0         0         0         0         0
         0         0         0         0         0         0         0         0
         0         0         0         0         0         0         0         0
         0         0         0         0         0         0         0         0
         0         0         0         0         0         0         0         0
         0         0         0         0         0         0         0         0
         0         0         0         0         0         0         0         0
         0         0         0         0         0         0         0         0
         0         0         0         0         0         0         0         0
         0         0         0         0         0         0         0         0
         0         0         0         0         0         0         0         0
         0         0         0         0         0         0         0         0
         0         0         0         0         0         0         0         0
         0         0         0         0         0         0         0         0
         0         0         0         0         0         0         0         0
         0         0         0         0         0         0         0         0
         0         0         0         0         0         0         0         0
         0         0         0         0         0         0         0         0
         0         0         0         0         0         0         0         0
         0         0         0         0         0         0         0         0
         0         0         0         0         0         0         0         0
         0         0         0         0         0         0         0         0
         0         0         0         0         0         0         0         0
         0         0         0         0         0         0         0         0
         0         0         0         0         0         0         0         0
         0         0         0         0         0         0         0         0
         0         0         0         0         0         0         0         0
         0         0         0         0         0         0         0         0
         0         0         0         0         0         0         0         0
         0         0         0         0         0         0         0         0
         0         0         0         0         0         0         0         0
         0         0         0         0         0         0         0         0
         0         0         0         0         0         0         0         0
         0         0         0         0         0         0         0         0
         0         0         0         0         0         0         0         0
         0         0         0         0         0         0         0         0
         0         0         0         0         0         0         0         0
         0         0         0         0         0         0         0         0
         0         0         0         0         0         0         0         0
         0         0         0         0         0         0         0         0
         0         0         0         0         0         0         0         0
         0         0         0         0         0         0         0         0
         0         0         0         0         0         0         0         0
         0         0         0         0         0         0         0         0
         0         0         0         0         0         0         0         0
         0         0         0         0         0         0         0         0
         0         0         0         0         0         0         0         0
         0         0         0         0         0         0         0         0
         0         0         0         0         0         0         0         0
         0         0         0         0         0         0         0         0
         0         0         0         0         0         0         0         0
         0         0         0         0         0         0         0         0
         0         0         0         0         0         0         0         0
         0         0         0         0         0         0         0         0
         0         0         0         0         0         0         0         0
         0         0         0         0         0         0         0         0
         0         0         0         0         0         0         0         0
         0         0         0         0         0         0         0         0
         0         0         0         0         0         0         0         0
         0         0         0         0         0         0         0         0
         0         0         0         0         0         0         0         0
         0         0         0         0         0         0         0         0
         0         0         0         0         0         0         0         0
         0         0         0         0         0         0         0         0
         0         0         0         0         0         0         0         0
         0         0         0         0         0         0         0         0
         0         0         0         0         0         0         0         0
         0         0         0         0         0         0         0         0
         0         0         0         0         0         0         0         0
         0         0         0         0         0         0         0         0
         0         0         0         0         0         0         0         0
         0         0         0         0         0         0         0         0
         0         0         0         0         0         0         0         0
         0         0         0         0         0         0         0         0
         0         0         0         0         0         0         0         0
         0         0         0         0         0         0         0         0
         0         0         0         0         0         0         0         0
         0         0         0         0         0         0         0         0
         0         0         0         0         0         0         0         0
         0         0         0         0         0         0         0         0
         0         0         0         0         0         0         0         0
         0         0         0         0         0         0         0         0
         0         0         0         0         0         0         0         0
         0         0         0         0         0         0         0         0
         0         0         0         0         0         0         0         0
         0         0         0         0         0         0         0         0
         0         0         0         0         0         0         0         0
         0         0         0         0         0         0         0         0
         0         0         0         0         0         0         0         0
         0         0         0         0         0         0         0         0
         0         0         0         0         0         0         0         0
         0         0         0         0         0         0         0         0
         0         0         0         0         0         0         0         0
         0         0         0         0         0         0         0         0
         0         0         0         0         0         0         0         0
         0         0         0         0         0         0         0         0
         0         0         0         0         0         0         0         0
         0         0         0         0         0         0         0         0
         0         0         0         0         0         0         0         0
         0         0         0         0         0         0         0         0
         0         0         0         0         0         0         0         0
         0         0         0         0         0         0         0         0
         0         0         0         0         0         0         0         0
         0         0         0         0         0         0         0         0
         0         0         0         0         0         0         0         0
         0         0         0         0         0         0         0         0
         0         0         0         0         0         0         0         0
         0         0         0         0         0         0         0         0
         0         0         0         0         0         0         0         0
         0         0         0         0         0         0         0         0
         0         0         0         0         0         0         0         0
         0         0         0         0         0         0         0         0
         0         0         0         0         0         0         0         0
         0         0         0         0         0         0         0         0
         0         0         0         0         0         0         0         0
         0         0         0         0         0         0         0         0
         0         0         0         0         0         0         0         0
         0         0         0         0         0         0         0         0
         0         0         0         0         0         0         0         0
         0         0         0         0         0         0         0         0
         0         0         0         0         0         0         0         0
         0         0         0         0         0         0         0         0
         0         0         0         0         0         0         0         0
         0         0         0         0         0         0         0         0
         0         0         0         0         0         0         0         0
         0         0         0         0         0         0         0         0
         0         0         0         0         0         0         0         0
         0         0         0         0         0         0         0         0
         0         0         0         0         0         0         0         0
         0         0         0         0         0         0         0         0
         0         0         0         0         0         0         0         0
         0         0         0         0         0         0         0         0
         0         0         0         0         0         0         0         0
         0         0         0         0         0         0         0         0
         0         0         0         0         0         0         0         0
         0         0         0         0         0         0         0         0
         0         0         0         0         0         0         0         0
         0         0         0         0         0         0         0         0
         0         0         0         0         0         0         0         0
         0         0         0         0         0         0         0         0
         0         0         0         0         0         0         0         0
         0         0         0         0         0         0         0         0
         0         0         0         0         0         0         0         0
         0         0         0         0         0         0         0         0
         0         0         0         0         0         0         0         0
         0         0         0         0         0         0         0         0
         0         0         0         0         0         0         0         0
         0         0         0         0         0         0         0         0
         0         0         0         0         0         0         0         0
         0         0         0         0         0         0         0         0
         0         0         0         0         0         0         0         0
         0         0         0         0         0         0         0         0
         0         0         0         0         0         0         0         0
         0         0         0         0         0         0         0         0
         0         0         0         0         0         0         0         0
         0         0         0         0         0         0         0         0
         0         0         0         0         0         0         0         0
         0         0         0         0         0         0         0         0
         0         0         0         0         0         0         0         0
         0         0         0         0         0         0         0         0
         0         0         0         0         0         0         0         0
         0         0         0         0         0         0         0         0
         0         0         0         0         0         0         0         0
         0         0         0         0         0         0         0         0
         0         0         0         0         0         0         0         0
         0         0         0         0         0         0         0         0
         0         0         0         0         0         0         0         0
         0         0         0         0         0         0         0         0
         0         0         0         0         0         0         0         0
         0         0         0         0         0         0         0         0
         0         0         0         0         0         0         0         0
         0         0         0         0         0         0         0         0
         0         0         0         0         0         0         0         0
         0         0         0         0         0         0         0         0
         0         0         0         0         0         0         0         0
         0         0         0         0         0         0         0         0
         0         0         0         0         0         0         0         0
         0         0         0         0         0         0         0         0
         0         0         0         0         0         0         0         0
         0         0         0         0         0         0         0         0
         0         0         0         0         0         0         0         0
         0         0         0         0         0         0         0         0
         0         0         0         0         0         0         0         0
         0         0         0         0         0         0         0         0
         0         0         0         0         0         0         0         0
         0         0         0         0         0         0         0         0
         0         0         0         0         0         0         0         0
         0         0         0         0         0         0         0         0
         0         0         0         0         0         0         0         0
         0         0         0         0         0         0         0         0
         0         0         0         0         0         0         0         0
         0         0         0         0         0         0         0         0
         0         0         0         0         0         0         0         0
         0         0         0         0         0         0         0         0
         0         0         0         0         0         0         0         0
         0         0         0         0         0         0         0         0
         0         0         0         0         0         0         0         0
         0         0         0         0         0         0         0         0
         0         0         0         0         0         0         0         0
         0         0         0         0         0         0         0         0
         0         0         0         0         0         0         0         0
         0         0         0         0         0         0         0         0
         0         0         0         0         0         0         0         0
         0         0         0         0         0         0         0         0
         0         0         0         0         0         0         0         0
         0         0         0         0         0         0         0         0
         0         0         0         0         0         0         0         0
         0         0         0         0         0         0         0         0
         0         0         0         0         0         0         0         0
         0         0         0         0         0         0         0         0
         0         0         0         0         0         0         0         0
         0         0         0         0         0         0         0         0
         0         0         0         0         0         0         0         0
         0         0         0         0         0         0         0         0
         0         0         0         0         0         0         0         0
         0         0         0         0         0         0         0         0
         0         0         0         0         0         0         0         0
         0         0         0         0         0         0         0         0
         0         0         0         0         0         0         0         0
         0         0         0         0         0         0         0         0
         0         0         0         0         0         0         0         0
         0         0         0         0         0         0         0         0
         0         0         0         0         0         0         0         0
         0         0         0         0         0         0         0         0
         0         0         0         0         0         0         0         0
         0         0         0         0         0         0         0         0
         0         0         0         0         0         0         0         0
         0         0         0         0         0         0         0         0
         0         0         0         0         0         0         0         0
         0         0         0         0         0         0         0         0
         0         0         0         0         0         0         0         0
         0         0         0         0         0         0         0         0
         0         0         0         0         0         0         0         0
         0         0         0         0         0         0         0         0
         0         0         0         0         0         0         0         0
         0         0         0         0         0         0         0         0
         0         0         0         0         0         0         0         0
         0         0         0         0         0         0         0         0
         0         0         0         0         0         0         0         0
         0         0         0         0         0         0         0         0
         0         0         0         0         0         0         0         0
         0         0         0         0         0         0         0         0
         0         0         0         0         0         0         0         0
         0         0         0         0         0         0         0         0
         0         0         0         0         0         0         0         0
         0         0         0         0         0         0         0         0
         0         0         0         0         0         0         0         0
         0         0         0         0         0         0         0         0
         0         0         0         0         0         0         0         0
         0         0         0         0         0         0         0         0
         0         0         0         0         0         0         0         0
         0         0         0         0         0         0         0         0
         0         0         0         0         0         0         0         0
         0         0         0         0         0         0         0         0
         0         0         0         0         0         0         0         0
         0         0         0         0         0         0         0         0
         0         0         0         0         0         0         0         0
         0         0         0         0         0         0         0         0
         0         0         0         0         0         0         0         0
         0         0         0         0         0         0         0         0
         0         0         0         0         0         0         0         0
         0         0         0         0         0         0         0         0
         0         0         0         0         0         0         0         0
         0         0         0         0         0         0         0         0
         0         0         0         0         0         0         0         0
         0         0         0         0         0         0         0         0
         0         0         0         0         0         0         0         0
         0         0         0         0         0         0         0         0
         0         0         0         0         0         0         0         0
         0         0         0         0         0         0         0         0
         0         0         0         0         0         0         0         0
         0         0         0         0         0         0         0         0
         0         0         0         0         0         0         0         0
         0         0         0         0         0         0         0         0
         0         0         0         0         0         0         0         0
         0         0         0         0         0         0         0         0
         0         0         0         0         0         0         0         0
         0         0         0         0         0         0         0         0
         0         0         0         0         0         0         0         0
         0         0         0         0         0         0         0         0
         0         0         0         0         0         0         0         0
         0         0         0         0         0         0         0         0
         0         0         0         0         0         0         0         0
         0         0         0         0         0         0         0         0
         0         0         0         0         0         0         0         0
         0         0         0         0         0         0         0         0
         0         0         0         0         0         0         0         0
         0         0         0         0         0         0         0         0
         0         0         0         0         0         0         0         0
         0         0         0         0         0         0         0         0
         0         0         0         0         0         0         0         0
         0         0         0         0         0         0         0         0
         0         0         0         0         0         0         0         0
         0         0         0         0         0         0         0         0
         0         0         0         0         0         0         0         0
         0         0         0         0         0         0         0         0
         0         0         0         0         0         0         0         0
         0         0         0         0         0         0         0         0
         0         0         0         0         0         0         0         0
         0         0         0         0         0         0         0         0
         0         0         0         0         0         0         0         0
         0         0         0         0         0         0         0         0
         0         0         0         0         0         0         0         0
         0         0         0         0         0         0         0         0
         0         0         0         0         0         0         0         0
         0         0         0         0         0         0         0         0
         0         0         0         0         0         0         0         0
         0         0         0         0         0         0         0         0
         0         0         0         0         0         0         0         0
         0         0         0         0         0         0         0         0
         0         0         0         0         0         0         0         0
         0         0         0         0         0         0         0         0
         0         0         0         0         0         0         0         0
         0         0         0         0         0         0         0         0
         0         0         0         0         0         0         0         0
         0         0         0         0         0         0         0         0
         0         0         0         0         0         0         0         0
         0         0         0         0         0         0         0         0
         0         0         0         0         0         0         0         0
         0         0         0         0         0         0         0         0
         0         0         0         0         0         0         0         0
         0         0         0         0         0         0         0         0
         0         0         0         0         0         0         0         0
         0         0         0         0         0         0         0         0
         0         0         0         0         0         0         0         0
         0         0         0         0         0         0         0         0
         0         0         0         0         0         0         0         0
         0         0         0         0         0         0         0         0
         0         0         0         0         0         0         0         0
         0         0         0         0         0         0         0         0
         0         0         0         0         0         0         0         0
         0         0         0         0         0         0         0         0
         0         0         0         0         0         0         0         0
         0         0         0         0         0         0         0         0
         0         0         0         0         0         0         0         0
         0         0         0         0         0         0         0         0
         0         0         0         0         0         0         0         0
         0         0         0         0         0         0         0         0
         0         0         0         0         0         0         0         0
         0         0         0         0         0         0         0         0
         0         0         0         0         0         0         0         0
         0         0         0         0         0         0         0         0
         0         0         0         0         0         0         0         0
         0         0         0         0         0         0         0         0
         0         0         0         0         0         0         0         0
         0         0         0         0         0         0         0         0
         0         0         0         0         0         0         0         0
         0         0         0         0         0         0         0         0
         0         0         0         0         0         0         0         0
         0         0         0         0         0         0         0         0
         0         0         0         0         0         0         0         0
         0         0         0         0         0         0         0         0
         0         0         0         0         0         0         0         0
         0         0         0         0         0         0         0         0
         0         0         0         0         0         0         0         0
         0         0         0         0         0         0         0         0
         0         0         0         0         0         0         0         0
         0         0         0         0         0         0         0         0
         0         0         0         0         0         0         0         0
         0         0         0         0         0         0         0         0
         0         0         0         0         0         0         0         0
         0         0         0         0         0         0         0         0
         0         0         0         0         0         0         0         0
         0         0         0         0         0         0         0         0
         0         0         0         0         0         0         0         0
         0         0         0         0         0         0         0         0
         0         0         0         0         0         0         0         0
         0         0         0         0         0         0         0         0
         0         0         0         0         0         0         0         0
         0         0         0         0         0         0         0         0
         0         0         0         0         0         0         0         0
         0         0         0         0         0         0         0         0
         0         0         0         0         0         0         0         0
         0         0         0         0         0         0         0         0
         0         0         0         0         0         0         0         0
         0         0         0         0         0         0         0         0
         0         0         0         0         0         0         0         0
         0         0         0         0         0         0         0         0
         0         0         0         0         0         0         0         0
         0         0         0         0         0         0         0         0
         0         0         0         0         0         0         0         0
         0         0         0         0         0         0         0         0
         0         0         0         0         0         0         0         0
         0         0         0         0         0         0         0         0
         0         0         0         0         0         0         0         0
         0         0         0         0         0         0         0         0
         0         0         0         0         0         0         0         0
         0         0         0         0         0         0         0         0
         0         0         0         0         0         0         0         0
         0         0         0         0         0         0         0         0
         0         0         0         0         0         0         0         0
         0         0         0         0         0         0         0         0
         0         0         0         0         0         0         0         0
         0         0         0         0         0         0         0         0
         0         0         0         0         0         0         0         0
         0         0         0         0         0         0         0         0
         0         0         0         0         0         0         0         0
         0         0         0         0         0         0         0         0
         0         0         0         0         0         0         0         0
         0         0         0         0         0         0         0         0
         0         0         0         0         0         0         0         0
         0         0         0         0         0         0         0         0
         0         0         0         0         0         0         0         0
         0         0         0         0         0         0         0         0
         0         0         0         0         0         0         0         0
         0         0         0         0         0         0         0         0
         0         0         0         0         0         0         0         0
         0         0         0         0         0         0         0         0
         0         0         0         0         0         0         0         0
         0         0         0         0         0         0         0         0
         0         0         0         0         0         0         0         0
         0         0         0         0         0         0         0         0
         0         0         0         0         0         0         0         0
         0         0         0         0         0         0         0         0
         0         0         0         0         0         0         0         0
         0         0         0         0         0         0         0         0
         0         0         0         0         0         0         0         0
         0         0         0         0         0         0         0         0
         0         0         0         0         0         0         0         0
         0         0         0         0         0         0         0         0
         0         0         0         0         0         0         0         0
         0         0         0         0         0         0         0         0
         0         0         0         0         0         0         0         0
         0         0         0         0         0         0         0         0
         0         0         0         0         0         0         0         0
         0         0         0         0         0         0         0         0
         0         0         0         0         0         0         0         0
         0         0         0         0         0         0         0         0
         0         0         0         0         0         0         0         0
         0         0         0         0         0         0         0         0
         0         0         0         0         0         0         0         0
         0         0         0         0         0         0         0         0
         0         0         0         0         0         0         0         0
         0         0         0         0         0         0         0         0
         0         0         0         0         0         0         0         0
         0         0         0         0         0         0         0         0
         0         0         0         0         0         0         0         0
         0         0         0         0         0         0         0         0
         0         0         0         0         0         0         0         0
         0         0         0         0         0         0         0         0
         0         0         0         0         0         0         0         0
         0         0         0         0         0         0         0         0
         0         0         0         0         0         0         0         0
         0         0         0         0         0         0         0         0
         0         0         0         0         0         0         0         0
         0         0         0         0         0         0         0         0
         0         0         0         0         0         0         0         0
         0         0         0         0         0         0         0         0
         0         0         0         0         0         0         0         0
         0         0         0         0         0         0         0         0
         0         0         0         0         0         0         0         0
         0         0         0         0         0         0         0         0
         0         0         0         0         0         0         0         0
         0         0         0         0         0         0         0         0
         0         0         0         0         0         0         0         0
         0         0         0         0         0         0         0         0
         0         0         0         0         0         0         0         0
         0         0         0         0         0         0         0         0
         0         0         0         0         0         0         0         0
         0         0         0         0         0         0         0         0
         0         0         0         0         0         0         0         0
         0         0         0         0         0         0         0         0
         0         0         0         0         0         0         0         0
         0         0         0         0         0         0         0         0
         0         0         0         0         0         0         0         0
         0         0         0         0         0         0         0         0
         0         0         0         0         0         0         0         0
         0         0         0         0         0         0         0         0
         0         0         0         0         0         0         0         0
         0         0         0         0         0         0         0         0
         0         0         0         0         0         0         0         0
         0         0         0         0         0         0         0         0
         0         0         0         0         0         0         0         0
         0         0         0         0         0         0         0         0
         0         0         0         0         0         0         0         0
         0         0         0         0         0         0         0         0
         0         0         0         0         0         0         0         0
         0         0         0         0         0         0         0         0
         0         0         0         0         0         0         0         0
         0         0         0         0         0         0         0         0
         0         0         0         0         0         0         0         0
         0         0         0         0         0         0         0         0
         0         0         0         0         0         0         0         0
         0         0         0         0         0         0         0         0
         0         0         0         0         0         0         0         0
         0         0         0         0         0         0         0         0
         0         0         0         0         0         0         0         0
         0         0         0         0         0         0         0         0
         0         0         0         0         0         0         0         0
         0         0         0         0         0         0         0         0
         0         0         0         0         0         0         0         0
         0         0         0         0         0         0         0         0
         0         0         0         0         0         0         0         0
         0         0         0         0         0         0         0         0
         0         0         0         0         0         0         0         0
         0         0         0         0         0         0         0         0
         0         0         0         0         0         0         0         0
         0         0         0         0         0         0         0         0
         0         0         0         0         0         0         0         0
         0         0         0         0         0         0         0         0
         0         0         0         0         0         0         0         0
         0         0         0         0         0         0         0         0
         0         0         0         0         0         0         0         0
         0         0         0         0         0         0         0         0
         0         0         0         0         0         0         0         0
         0         0         0         0         0         0         0         0
         0         0         0         0         0         0         0         0
         0         0         0         0         0         0         0         0
         0         0         0         0         0         0         0         0
         0         0         0         0         0         0         0         0
         0         0         0         0         0         0         0         0
         0         0         0         0         0         0         0         0
         0         0         0         0         0         0         0         0
         0         0         0         0         0         0         0         0
         0         0         0         0         0         0         0         0
         0         0         0         0         0         0         0         0
         0         0         0         0         0         0         0         0
         0         0         0         0         0         0         0         0
         0         0         0         0         0         0         0         0
         0         0         0         0         0         0         0         0
         0         0         0         0         0         0         0         0
         0         0         0         0         0         0         0         0
         0         0         0         0         0         0         0         0
         0         0         0         0         0         0         0         0
         0         0         0         0         0         0         0         0
         0         0         0         0         0         0         0         0
         0         0         0         0         0         0         0         0
         0         0         0         0         0         0         0         0
         0         0         0         0         0         0         0         0
         0         0         0         0         0         0         0         0
         0         0         0         0         0         0         0         0
         0         0         0         0         0         0         0         0
         0         0         0         0         0         0         0         0
         0         0         0         0         0         0         0         0
         0         0         0         0         0         0         0         0
         0         0         0         0         0         0         0         0
         0         0         0         0         0         0         0         0
         0         0         0         0         0         0         0         0
         0         0         0         0         0         0         0         0
         0         0         0         0         0         0         0         0
         0         0         0         0         0         0         0         0
         0         0         0         0         0         0         0         0
         0         0         0         0         0         0         0         0
         0         0         0         0         0         0         0         0
         0         0         0         0         0         0         0         0
         0         0         0         0         0         0         0         0
         0         0         0         0         0         0         0         0
         0         0         0         0         0         0         0         0
         0         0         0         0         0         0         0         0
         0         0         0         0         0         0         0         0
         0         0         0         0         0         0         0         0
         0         0         0         0         0         0         0         0
         0         0         0         0         0         0         0         0
         0         0         0         0         0         0         0         0
         0         0         0         0         0         0         0         0
         0         0         0         0         0         0         0         0
         0         0         0         0         0         0         0         0
         0         0         0         0         0         0         0         0
         0         0         0         0         0         0         0         0
         0         0         0         0         0         0         0         0
         0         0         0         0         0         0         0         0
         0         0         0         0         0         0         0         0
         0         0         0         0         0         0         0         0
         0         0         0         0         0         0         0         0
         0         0         0         0         0         0         0         0
         0         0         0         0         0         0         0         0
         0         0         0         0         0         0         0         0
         0         0         0         0         0         0         0         0
         0         0         0         0         0         0         0         0
         0         0         0         0         0         0         0         0
         0         0         0         0         0         0         0         0
         0         0         0         0         0         0         0         0
         0         0         0         0         0         0         0         0
         0         0         0         0         0         0         0         0
         0         0         0         0         0         0         0         0
         0         0         0         0         0         0         0         0
         0         0         0         0         0         0         0         0
         0         0         0         0         0         0         0         0
         0         0         0         0         0         0         0         0
         0         0         0         0         0         0         0         0
         0         0         0         0         0         0         0         0
         0         0         0         0         0         0         0         0
         0         0         0         0         0         0         0         0
         0         0         0         0         0         0         0         0
         0         0         0         0         0         0         0         0
         0         0         0         0         0         0         0         0
         0         0         0         0         0         0         0         0
         0         0         0         0         0         0         0         0
         0         0         0         0         0         0         0         0
         0         0         0         0         0         0         0         0
         0         0         0         0         0         0         0         0
         0         0         0         0         0         0         0         0
         0         0         0         0         0         0         0         0
         0         0         0         0         0         0         0         0
         0         0         0         0         0         0         0         0
         0         0         0         0         0         0         0         0
         0         0         0         0         0         0         0         0
         0         0         0         0         0         0         0         0
         0         0         0         0         0         0         0         0
         0         0         0         0         0         0         0         0
         0         0         0         0         0         0         0         0
         0         0         0         0         0         0         0         0
         0         0         0         0         0         0         0         0
         0         0         0         0         0         0         0         0
         0         0         0         0         0         0         0         0
         0         0         0         0         0         0         0         0
         0         0         0         0         0         0         0         0
         0         0         0         0         0         0         0         0
         0         0         0         0         0         0         0         0
         0         0         0         0         0         0         0         0
         0         0         0         0         0         0         0         0
         0         0         0         0         0         0         0         0
         0         0         0         0         0         0         0         0
         0         0         0         0         0         0         0         0
         0         0         0         0         0         0         0         0
         0         0         0         0         0         0         0         0
         0         0         0         0         0         0         0         0
         0         0         0         0         0         0         0         0
         0         0         0         0         0         0         0         0
         0         0         0         0         0         0         0         0
         0         0         0         0         0         0         0         0
         0         0         0         0         0         0         0         0
         0         0         0         0         0         0         0         0
         0         0         0         0         0         0         0         0
         0         0         0         0         0         0         0         0
         0         0         0         0         0         0         0         0
         0         0         0         0         0         0         0         0
         0         0         0         0         0         0         0         0
         0         0         0         0         0         0         0         0
         0         0         0         0         0         0         0         0
         0         0         0         0         0         0         0         0
         0         0         0         0         0         0         0         0
         0         0         0         0         0         0         0         0
         0         0         0         0         0         0         0         0
         0         0         0         0         0         0         0         0
         0         0         0         0         0         0         0         0
         0         0         0         0         0         0         0         0
         0         0         0         0         0         0         0         0
         0         0         0         0         0         0         0         0
         0         0         0         0         0         0         0         0
         0         0         0         0         0         0         0         0
         0         0         0         0         0         0         0         0
         0         0         0         0         0         0         0         0
         0         0         0         0         0         0         0         0
         0         0         0         0         0         0         0         0
         0         0         0         0         0         0         0         0
         0         0         0         0         0         0         0         0
         0         0         0         0         0         0         0         0
         0         0         0         0         0         0         0         0
         0         0         0         0         0         0         0         0
         0         0         0         0         0         0         0         0
         0         0         0         0         0         0         0         0
         0         0         0         0         0         0         0         0
         0         0         0         0         0         0         0         0
         0         0         0         0         0         0         0         0
         0         0         0         0         0         0         0         0
         0         0         0         0         0         0         0         0
         0         0         0         0         0         0         0         0
         0         0         0         0         0         0         0         0
         0         0         0         0         0         0         0         0
         0         0         0         0         0         0         0         0
         0         0         0         0         0         0         0         0
         0         0         0         0         0         0         0         0
         0         0         0         0         0         0         0         0
         0         0         0         0         0         0         0         0
         0         0         0         0         0         0         0         0
         0         0         0         0         0         0         0         0
         0         0         0         0         0         0         0         0
         0         0         0         0         0         0         0         0
         0         0         0         0         0         0         0         0
         0         0         0         0         0         0         0         0
         0         0         0         0         0         0         0         0
         0         0         0         0         0         0         0         0
         0         0         0         0         0         0         0         0
         0         0         0         0         0         0         0         0
         0         0         0         0         0         0         0         0
         0         0         0         0         0         0         0         0
         0         0         0         0         0         0         0         0
         0         0         0         0         0         0         0         0
         0         0         0         0         0         0         0         0
         0         0         0         0         0         0         0         0
         0         0         0         0         0         0         0         0
         0         0         0         0         0         0         0         0
         0         0         0         0         0         0         0         0
         0         0         0         0         0         0         0         0
         0         0         0         0         0         0         0         0
         0         0         0         0         0         0         0         0
         0         0         0         0         0         0         0         0
         0         0         0         0         0         0         0         0
         0         0         0         0         0         0         0         0
         0         0         0         0         0         0         0         0
         0         0         0         0         0         0         0         0
         0         0         0         0         0         0         0         0
         0         0         0         0         0         0         0         0
         0         0         0         0         0         0         0         0
         0         0         0         0         0         0         0         0
         0         0         0         0         0         0         0         0
         0         0         0         0         0         0         0         0
         0         0         0         0         0         0         0         0
         0         0         0         0         0         0         0         0
         0         0         0         0         0         0         0         0
         0         0         0         0         0         0         0         0
         0         0         0         0         0         0         0         0
         0         0         0         0         0         0         0         0
         0         0         0         0         0         0         0         0
         0         0         0         0         0         0         0         0
         0         0         0         0         0         0         0         0
         0         0         0         0         0         0         0         0
         0         0         0         0         0         0         0         0
         0         0         0         0         0         0         0         0
         0         0         0         0         0         0         0         0
         0         0         0         0         0         0         0         0
         0         0         0         0         0         0         0         0
         0         0         0         0         0         0         0         0
         0         0         0         0         0         0         0         0
         0         0         0         0         0         0         0         0
         0         0         0         0         0         0         0         0
         0         0         0         0         0         0         0         0
         0         0         0         0         0         0         0         0
         0         0         0         0         0         0         0         0
         0         0         0         0         0         0         0         0
         0         0         0         0         0         0         0         0
         0         0         0         0         0         0         0         0
         0         0         0         0         0         0         0         0
         0         0         0         0         0         0         0         0
         0         0         0         0         0         0         0         0
         0         0         0         0         0         0         0         0
         0         0         0         0         0         0         0         0
         0         0         0         0         0         0         0         0
         0         0         0         0         0         0         0         0
         0         0         0         0         0         0         0         0
         0         0         0         0         0         0         0         0
         0         0         0         0         0         0         0         0
         0         0         0         0         0         0         0         0
         0         0         0         0         0         0         0         0
         0         0         0         0         0         0         0         0
         0         0         0         0         0         0         0         0
         0         0         0         0         0         0         0         0
         0         0         0         0         0         0         0         0
         0         0         0         0         0         0         0         0
         0         0         0         0         0         0         0         0
         0         0         0         0         0         0         0         0
         0         0         0         0         0         0         0         0
         0         0         0         0         0         0         0         0
         0         0         0         0         0         0         0         0
         0         0         0         0         0         0         0         0
         0         0         0         0         0         0         0         0
         0         0         0         0         0         0         0         0
         0         0         0         0         0         0         0         0
         0         0         0         0         0         0         0         0
         0         0         0         0         0         0         0         0
         0         0         0         0         0         0         0         0
         0         0         0         0         0         0         0         0
         0         0         0         0         0         0         0         0
         0         0         0         0         0         0         0         0
         0         0         0         0         0         0         0         0
         0         0         0         0         0         0         0         0
         0         0         0         0         0         0         0         0
         0         0         0         0         0         0         0         0
         0         0         0         0         0         0         0         0
         0         0         0         0         0         0         0         0
         0         0         0         0         0         0         0         0
         0         0         0         0         0         0         0         0
         0         0         0         0         0         0         0         0
         0         0         0         0         0         0         0         0
         0         0         0         0         0         0         0         0
         0         0         0         0         0         0         0         0
         0         0         0         0         0         0         0         0
         0         0         0         0         0         0         0         0
         0         0         0         0         0         0         0         0
         0         0         0         0         0         0         0         0
         0         0         0         0         0         0         0         0
         0         0         0         0         0         0         0         0
         0         0         0         0         0         0         0         0
         0         0         0         0         0         0         0         0
         0         0         0         0         0         0         0         0
         0         0         0         0         0         0         0         0
         0         0         0         0         0         0         0         0
         0         0         0         0         0         0         0         0
         0         0         0         0         0         0         0         0
         0         0         0         0         0         0         0         0
         0         0         0         0         0         0         0         0
         0         0         0         0         0         0         0         0
         0         0         0         0         0         0         0         0
         0         0         0         0         0         0         0         0
         0         0         0         0         0         0         0         0
         0         0         0         0         0         0         0         0
         0         0         0         0         0         0         0         0
         0         0         0         0         0         0         0         0
         0         0         0         0         0         0         0         0
         0         0         0         0         0         0         0         0
         0         0         0         0         0         0         0         0
         0         0         0         0         0         0         0         0
         0         0         0         0         0         0         0         0
         0         0         0         0         0         0         0         0
         0         0         0         0         0         0         0         0
         0         0         0         0         0         0         0         0
         0         0         0         0         0         0         0         0
         0         0         0         0         0         0         0         0
         0         0         0         0         0         0         0         0
         0         0         0         0         0         0         0         0
         0         0         0         0         0         0         0         0
         0         0         0         0         0         0         0         0
         0         0         0         0         0         0         0         0
         0         0         0         0         0         0         0         0
         0         0         0         0         0         0         0         0
         0         0         0         0         0         0         0         0
         0         0         0         0         0         0         0         0
         0         0         0         0         0         0         0         0
         0         0         0         0         0         0         0         0
         0         0         0         0         0         0         0         0
         0         0         0         0         0         0         0         0
         0         0         0         0         0         0         0         0
         0         0         0         0         0         0         0         0
         0         0         0         0         0         0         0         0
         0         0         0         0         0         0         0         0
         0         0         0         0         0         0         0         0
         0         0         0         0         0         0         0         0
         0         0         0         0         0         0         0         0
         0         0         0         0         0         0         0         0
         0         0         0         0         0         0         0         0
         0         0         0         0         0         0         0         0
         0         0         0         0         0         0         0         0
         0         0         0         0         0         0         0         0
         0         0         0         0         0         0         0         0
         0         0         0         0         0         0         0         0
         0         0         0         0         0         0         0         0
         0         0         0         0         0         0         0         0
         0         0         0         0         0         0         0         0
         0         0         0         0         0         0         0         0
         0         0         0         0         0         0         0         0
         0         0         0         0         0         0         0         0
         0         0         0         0         0         0         0         0
         0         0         0         0         0         0         0         0
         0         0         0         0         0         0         0         0
         0         0         0         0         0         0         0         0
         0         0         0         0         0         0         0         0
         0         0         0         0         0         0         0         0
         0         0         0         0         0         0         0         0
         0         0         0         0         0         0         0         0
         0         0         0         0         0         0         0         0
         0         0         0         0         0         0         0         0
         0         0         0         0         0         0         0         0
         0         0         0         0         0         0         0         0
         0         0         0         0         0         0         0         0
         0         0         0         0         0         0         0         0
         0         0         0         0         0         0         0         0
         0         0         0         0         0         0         0         0
         0         0         0         0         0         0         0         0
         0         0         0         0         0         0         0         0
         0         0         0         0         0         0         0         0
         0         0         0         0         0         0         0         0
         0         0         0         0         0         0         0         0
         0         0         0         0         0         0         0         0
         0         0         0         0         0         0         0         0
         0         0         0         0         0         0         0         0
         0         0         0         0         0         0         0         0
         0         0         0         0         0         0         0         0
         0         0         0         0         0

     10482         0 !NGRP NST2
         0         2         0         6         1         0         9         1         0
        11         1         0        14         1         0        16         1         0
        20         1         0        23         1         0        25         1         0
        28         1         0        30         1         0        34         1         0
        37         1         0        40         2         0        52         1         0
        54         1         0        60         1         0        63         1         0
        66         1         0        68         1         0        72         1         0
        75         1         0        77         1         0        80         1         0
        82         1         0        88         1         0        91         1         0
        94         2         0        97         2         0       113         2         0
       124         1         0       132         1         0       141         1         0
       144         1         0       147         1         0       150         1         0
       153         1         0       156         1         0       159         1         0
       161         1         0       163         1         0       166         1         0
       169         1         0       172         1         0       175         1         0
       178         1         0       181         1         0       184         1         0
       188         1         0       191         1         0       194         1         0
       197         1         0       200         1         0       203         1         0
       206         1         0       209         1         0       212         1         0
       215         1         0       218         1         0       221         1         0
       224         1         0       227         1         0       231         2         0
       247         2         0       258         1         0       266         1         0
       275         1         0       278         1         0       281         1         0
       284         1         0       287         1         0       290         1         0
       293         1         0       295         1         0       297         1         0
       300         1         0       303         1         0       306         1         0
       309         1         0       312         1         0       315         1         0
       318         1         0       322         1         0       325         1         0
       328         1         0       331         1         0       334         1         0
       337         1         0       340         1         0       343         1         0
       346         1         0       349         1         0       352         1         0
       355         1         0       358         1         0       361         1         0
       365         2         0       381         2         0       392         1         0
       400         1         0       409         1         0       412         1         0
       415         1         0       418         1         0       421         1         0
       424         1         0       427         1         0       429         1         0
       431         1         0       434         1         0       437         1         0
       440         1         0       443         1         0       446         1         0
       449         1         0       452         1         0       456         1         0
       459         1         0       462         1         0       465         1         0
       468         1         0       471         1         0       474         1         0
       477         1         0       480         1         0       483         1         0
       486         1         0       489         1         0       492         1         0
       495         1         0       499         2         0       515         2         0
       526         1         0       534         1         0       543         1         0
       546         1         0       549         1         0       552         1         0
       555         1         0       558         1         0       561         1         0
       563         1         0       565         1         0       568         1         0
       571         1         0       574         1         0       577         1         0
       580         1         0       583         1         0       586         1         0
       590         1         0       593         1         0       596         1         0
       599         1         0       602         1         0       605         1         0
       608         1         0       611         1         0       614         1         0
       617         1         0       620         1         0       623         1         0
       626         1         0       629         1         0       633         2         0
       649         2         0       660         1         0       668         1         0
       677         1         0       680         1         0       683         1         0
       686         1         0       689         1         0       692         1         0
       695         1         0       697         1         0       699         1         0
       702         1         0       705         1         0       708         1         0
       711         1         0       714         1         0       717         1         0
       720         1         0       724         1         0       727         1         0
       730         1         0       733         1         0       736         1         0
       739         1         0       742         1         0       745         1         0
       748         1         0       751         1         0       754         1         0
       757         1         0       760         1         0       763         1         0
       767         2         0       783         2         0       794         1         0
       802         1         0       811         1         0       814         1         0
       817         1         0       820         1         0       823         1         0
       826         1         0       829         1         0       831         1         0
       833         1         0       836         1         0       839         1         0
       842         1         0       845         1         0       848         1         0
       851         1         0       854         1         0       858         1         0
       861         1         0       864         1         0       867         1         0
       870         1         0       873         1         0       876         1         0
       879         1         0       882         1         0       885         1         0
       888         1         0       891         1         0       894         1         0
       897         1         0       901         2         0       907         2         0
       910         2         0       921         1         0       929         1         0
       938         1         0       941         1         0       944         1         0
       947         1         0       950         1         0       953         1         0
       956         1         0       958         1         0       960         1         0
       963         1         0       966         1         0       969         1         0
       972         1         0       975         1         0       978         1         0
       981         1         0       985         1         0       988         1         0
       991         1         0       994         1         0       997         1         0
      1000         1         0      1003         1         0      1006         1         0
      1009         1         0      1012         1         0      1015         1         0
      1018         1         0      1021         1         0      1024         1         0
      1028         2         0      1044         2         0      1055         1         0
      1063         1         0      1072         1         0      1075         1         0
      1078         1         0      1081         1         0      1084         1         0
      1087         1         0      1090         1         0      1092         1         0
      1094         1         0      1097         1         0      1100         1         0
      1103         1         0      1106         1         0      1109         1         0
      1112         1         0      1115         1         0      1119         1         0
      1122         1         0      1125         1         0      1128         1         0
      1131         1         0      1134         1         0      1137         1         0
      1140         1         0      1143         1         0      1146         1         0
      1149         1         0      1152         1         0      1155         1         0
      1158         1         0      1162         2         0      1178         2         0
      1189         1         0      1197         1         0      1206         1         0
      1209         1         0      1212         1         0      1215         1         0
      1218         1         0      1221         1         0      1224         1         0
      1226         1         0      1228         1         0      1231         1         0
      1234         1         0      1237         1         0      1240         1         0
      1243         1         0      1246         1         0      1249         1         0
      1253         1         0      1256         1         0      1259         1         0
      1262         1         0      1265         1         0      1268         1         0
      1271         1         0      1274         1         0      1277         1         0
      1280         1         0      1283         1         0      1286         1         0
      1289         1         0      1292         1         0      1296         2         0
      1302         2         0      1305         2         0      1316         1         0
      1324         1         0      1333         1         0      1336         1         0
      1339         1         0      1342         1         0      1345         1         0
      1348         1         0      1351         1         0      1353         1         0
      1355         1         0      1358         1         0      1361         1         0
      1364         1         0      1367         1         0      1370         1         0
      1373         1         0      1376         1         0      1380         1         0
      1383         1         0      1386         1         0      1389         1         0
      1392         1         0      1395         1         0      1398         1         0
      1401         1         0      1404         1         0      1407         1         0
      1410         1         0      1413         1         0      1416         1         0
      1419         1         0      1423         2         0      1429         2         0
      1432         2         0      1443         1         0      1451         1         0
      1460         1         0      1463         1         0      1466         1         0
      1469         1         0      1472         1         0      1475         1         0
      1478         1         0      1480         1         0      1482         1         0
      1485         1         0      1488         1         0      1491         1         0
      1494         1         0      1497         1         0      1500         1         0
      1503         1         0      1507         1         0      1510         1         0
      1513         1         0      1516         1         0      1519         1         0
      1522         1         0      1525         1         0      1528         1         0
      1531         1         0      1534         1         0      1537         1         0
      1540         1         0      1543         1         0      1546         1         0
      1550         2         0      1566         2         0      1577         1         0
      1585         1         0      1594         1         0      1597         1         0
      1600         1         0      1603         1         0      1606         1         0
      1609         1         0      1612         1         0      1614         1         0
      1616         1         0      1619         1         0      1622         1         0
      1625         1         0      1628         1         0      1631         1         0
      1634         1         0      1637         1         0      1641         1         0
      1644         1         0      1647         1         0      1650         1         0
      1653         1         0      1656         1         0      1659         1         0
      1662         1         0      1665         1         0      1668         1         0
      1671         1         0      1674         1         0      1677         1         0
      1680         1         0      1684         2         0      1690         2         0
      1693         2         0      1704         1         0      1712         1         0
      1721         1         0      1724         1         0      1727         1         0
      1730         1         0      1733         1         0      1736         1         0
      1739         1         0      1741         1         0      1743         1         0
      1746         1         0      1749         1         0      1752         1         0
      1755         1         0      1758         1         0      1761         1         0
      1764         1         0      1768         1         0      1771         1         0
      1774         1         0      1777         1         0      1780         1         0
      1783         1         0      1786         1         0      1789         1         0
      1792         1         0      1795         1         0      1798         1         0
      1801         1         0      1804         1         0      1807         1         0
      1811         2         0      1827         2         0      1838         1         0
      1846         1         0      1855         1         0      1858         1         0
      1861         1         0      1864         1         0      1867         1         0
      1870         1         0      1873         1         0      1875         1         0
      1877         1         0      1880         1         0      1883         1         0
      1886         1         0      1889         1         0      1892         1         0
      1895         1         0      1898         1         0      1902         1         0
      1905         1         0      1908         1         0      1911         1         0
      1914         1         0      1917         1         0      1920         1         0
      1923         1         0      1926         1         0      1929         1         0
      1932         1         0      1935         1         0      1938         1         0
      1941         1         0      1945         2         0      1961         2         0
      1972         1         0      1980         1         0      1989         1         0
      1992         1         0      1995         1         0      1998         1         0
      2001         1         0      2004         1         0      2007         1         0
      2009         1         0      2011         1         0      2014         1         0
      2017         1         0      2020         1         0      2023         1         0
      2026         1         0      2029         1         0      2032         1         0
      2036         1         0      2039         1         0      2042         1         0
      2045         1         0      2048         1         0      2051         1         0
      2054         1         0      2057         1         0      2060         1         0
      2063         1         0      2066         1         0      2069         1         0
      2072         1         0      2075         1         0      2079         2         0
      2095         2         0      2106         1         0      2114         1         0
      2123         1         0      2126         1         0      2129         1         0
      2132         1         0      2135         1         0      2138         1         0
      2141         1         0      2143         1         0      2145         1         0
      2148         1         0      2151         1         0      2154         1         0
      2157         1         0      2160         1         0      2163         1         0
      2166         1         0      2170         1         0      2173         1         0
      2176         1         0      2179         1         0      2182         1         0
      2185         1         0      2188         1         0      2191         1         0
      2194         1         0      2197         1         0      2200         1         0
      2203         1         0      2206         1         0      2209         1         0
      2213         2         0      2229         2         0      2240         1         0
      2248         1         0      2257         1         0      2260         1         0
      2263         1         0      2266         1         0      2269         1         0
      2272         1         0      2275         1         0      2277         1         0
      2279         1         0      2282         1         0      2285         1         0
      2288         1         0      2291         1         0      2294         1         0
      2297         1         0      2300         1         0      2304         1         0
      2307         1         0      2310         1         0      2313         1         0
      2316         1         0      2319         1         0      2322         1         0
      2325         1         0      2328         1         0      2331         1         0
      2334         1         0      2337         1         0      2340         1         0
      2343         1         0      2347         2         0      2363         2         0
      2374         1         0      2382         1         0      2391         1         0
      2394         1         0      2397         1         0      2400         1         0
      2403         1         0      2406         1         0      2409         1         0
      2411         1         0      2413         1         0      2416         1         0
      2419         1         0      2422         1         0      2425         1         0
      2428         1         0      2431         1         0      2434         1         0
      2438         1         0      2441         1         0      2444         1         0
      2447         1         0      2450         1         0      2453         1         0
      2456         1         0      2459         1         0      2462         1         0
      2465         1         0      2468         1         0      2471         1         0
      2474         1         0      2477         1         0      2481         2         0
      2497         2         0      2508         1         0      2516         1         0
      2525         1         0      2528         1         0      2531         1         0
      2534         1         0      2537         1         0      2540         1         0
      2543         1         0      2545         1         0      2547         1         0
      2550         1         0      2553         1         0      2556         1         0
      2559         1         0      2562         1         0      2565         1         0
      2568         1         0      2572         1         0      2575         1         0
      2578         1         0      2581         1         0      2584         1         0
      2587         1         0      2590         1         0      2593         1         0
      2596         1         0      2599         1         0      2602         1         0
      2605         1         0      2608         1         0      2611         1         0
      2615         2         0      2621         2         0      2624         2         0
      2635         1         0      2643         1         0      2652         1         0
      2655         1         0      2658         1         0      2661         1         0
      2664         1         0      2667         1         0      2670         1         0
      2672         1         0      2674         1         0      2677         1         0
      2680         1         0      2683         1         0      2686         1         0
      2689         1         0      2692         1         0      2695         1         0
      2699         1         0      2702         1         0      2705         1         0
      2708         1         0      2711         1         0      2714         1         0
      2717         1         0      2720         1         0      2723         1         0
      2726         1         0      2729         1         0      2732         1         0
      2735         1         0      2738         1         0      2742         2         0
      2748         2         0      2751         2         0      2762         1         0
      2770         1         0      2779         1         0      2782         1         0
      2785         1         0      2788         1         0      2791         1         0
      2794         1         0      2797         1         0      2799         1         0
      2801         1         0      2804         1         0      2807         1         0
      2810         1         0      2813         1         0      2816         1         0
      2819         1         0      2822         1         0      2826         1         0
      2829         1         0      2832         1         0      2835         1         0
      2838         1         0      2841         1         0      2844         1         0
      2847         1         0      2850         1         0      2853         1         0
      2856         1         0      2859         1         0      2862         1         0
      2865         1         0      2869         2         0      2885         2         0
      2896         1         0      2904         1         0      2913         1         0
      2916         1         0      2919         1         0      2922         1         0
      2925         1         0      2928         1         0      2931         1         0
      2933         1         0      2935         1         0      2938         1         0
      2941         1         0      2944         1         0      2947         1         0
      2950         1         0      2953         1         0      2956         1         0
      2960         1         0      2963         1         0      2966         1         0
      2969         1         0      2972         1         0      2975         1         0
      2978         1         0      2981         1         0      2984         1         0
      2987         1         0      2990         1         0      2993         1         0
      2996         1         0      2999         1         0      3003         2         0
      3019         2         0      3030         1         0      3038         1         0
      3047         1         0      3050         1         0      3053         1         0
      3056         1         0      3059         1         0      3062         1         0
      3065         1         0      3067         1         0      3069         1         0
      3072         1         0      3075         1         0      3078         1         0
      3081         1         0      3084         1         0      3087         1         0
      3090         1         0      3094         1         0      3097         1         0
      3100         1         0      3103         1         0      3106         1         0
      3109         1         0      3112         1         0      3115         1         0
      3118         1         0      3121         1         0      3124         1         0
      3127         1         0      3130         1         0      3133         1         0
      3137         2         0      3143         2         0      3146         2         0
      3157         1         0      3165         1         0      3174         1         0
      3177         1         0      3180         1         0      3183         1         0
      3186         1         0      3189         1         0      3192         1         0
      3194         1         0      3196         1         0      3199         1         0
      3202         1         0      3205         1         0      3208         1         0
      3211         1         0      3214         1         0      3217         1         0
      3221         1         0      3224         1         0      3227         1         0
      3230         1         0      3233         1         0      3236         1         0
      3239         1         0      3242         1         0      3245         1         0
      3248         1         0      3251         1         0      3254         1         0
      3257         1         0      3260         1         0      3264         2         0
      3280         2         0      3291         1         0      3299         1         0
      3308         1         0      3311         1         0      3314         1         0
      3317         1         0      3320         1         0      3323         1         0
      3326         1         0      3328         1         0      3330         1         0
      3333         1         0      3336         1         0      3339         1         0
      3342         1         0      3345         1         0      3348         1         0
      3351         1         0      3355         1         0      3358         1         0
      3361         1         0      3364         1         0      3367         1         0
      3370         1         0      3373         1         0      3376         1         0
      3379         1         0      3382         1         0      3385         1         0
      3388         1         0      3391         1         0      3394         1         0
      3398         2         0      3414         2         0      3425         1         0
      3433         1         0      3442         1         0      3445         1         0
      3448         1         0      3451         1         0      3454         1         0
      3457         1         0      3460         1         0      3462         1         0
      3464         1         0      3467         1         0      3470         1         0
      3473         1         0      3476         1         0      3479         1         0
      3482         1         0      3485         1         0      3489         1         0
      3492         1         0      3495         1         0      3498         1         0
      3501         1         0      3504         1         0      3507         1         0
      3510         1         0      3513         1         0      3516         1         0
      3519         1         0      3522         1         0      3525         1         0
      3528         1         0      3532         2         0      3548         2         0
      3559         1         0      3567         1         0      3576         1         0
      3579         1         0      3582         1         0      3585         1         0
      3588         1         0      3591         1         0      3594         1         0
      3596         1         0      3598         1         0      3601         1         0
      3604         1         0      3607         1         0      3610         1         0
      3613         1         0      3616         1         0      3619         1         0
      3623         1         0      3626         1         0      3629         1         0
      3632         1         0      3635         1         0      3638         1         0
      3641         1         0      3644         1         0      3647         1         0
      3650         1         0      3653         1         0      3656         1         0
      3659         1         0      3662         1         0      3666         2         0
      3672         2         0      3675         2         0      3686         1         0
      3694         1         0      3703         1         0      3706         1         0
      3709         1         0      3712         1         0      3715         1         0
      3718         1         0      3721         1         0      3723         1         0
      3725         1         0      3728         1         0      3731         1         0
      3734         1         0      3737         1         0      3740         1         0
      3743         1         0      3746         1         0      3750         1         0
      3753         1         0      3756         1         0      3759         1         0
      3762         1         0      3765         1         0      3768         1         0
      3771         1         0      3774         1         0      3777         1         0
      3780         1         0      3783         1         0      3786         1         0
      3789         1         0      3793         2         0      3809         2         0
      3820         1         0      3828         1         0      3837         1         0
      3840         1         0      3843         1         0      3846         1         0
      3849         1         0      3852         1         0      3855         1         0
      3857         1         0      3859         1         0      3862         1         0
      3865         1         0      3868         1         0      3871         1         0
      3874         1         0      3877         1         0      3880         1         0
      3884         1         0      3887         1         0      3890         1         0
      3893         1         0      3896         1         0      3899         1         0
      3902         1         0      3905         1         0      3908         1         0
      3911         1         0      3914         1         0      3917         1         0
      3920         1         0      3923         1         0      3927         2         0
      3943         2         0      3954         1         0      3962         1         0
      3971         1         0      3974         1         0      3977         1         0
      3980         1         0      3983         1         0      3986         1         0
      3989         1         0      3991         1         0      3993         1         0
      3996         1         0      3999         1         0      4002         1         0
      4005         1         0      4008         1         0      4011         1         0
      4014         1         0      4018         1         0      4021         1         0
      4024         1         0      4027         1         0      4030         1         0
      4033         1         0      4036         1         0      4039         1         0
      4042         1         0      4045         1         0      4048         1         0
      4051         1         0      4054         1         0      4057         1         0
      4061         2         0      4067         2         0      4070         2         0
      4081         1         0      4089         1         0      4098         1         0
      4101         1         0      4104         1         0      4107         1         0
      4110         1         0      4113         1         0      4116         1         0
      4118         1         0      4120         1         0      4123         1         0
      4126         1         0      4129         1         0      4132         1         0
      4135         1         0      4138         1         0      4141         1         0
      4145         1         0      4148         1         0      4151         1         0
      4154         1         0      4157         1         0      4160         1         0
      4163         1         0      4166         1         0      4169         1         0
      4172         1         0      4175         1         0      4178         1         0
      4181         1         0      4184         1         0      4188         2         0
      4204         2         0      4215         1         0      4223         1         0
      4232         1         0      4235         1         0      4238         1         0
      4241         1         0      4244         1         0      4247         1         0
      4250         1         0      4252         1         0      4254         1         0
      4257         1         0      4260         1         0      4263         1         0
      4266         1         0      4269         1         0      4272         1         0
      4275         1         0      4279         1         0      4282         1         0
      4285         1         0      4288         1         0      4291         1         0
      4294         1         0      4297         1         0      4300         1         0
      4303         1         0      4306         1         0      4309         1         0
      4312         1         0      4315         1         0      4318         1         0
      4322         2         0      4338         2         0      4349         1         0
      4357         1         0      4366         1         0      4369         1         0
      4372         1         0      4375         1         0      4378         1         0
      4381         1         0      4384         1         0      4386         1         0
      4388         1         0      4391         1         0      4394         1         0
      4397         1         0      4400         1         0      4403         1         0
      4406         1         0      4409         1         0      4413         1         0
      4416         1         0      4419         1         0      4422         1         0
      4425         1         0      4428         1         0      4431         1         0
      4434         1         0      4437         1         0      4440         1         0
      4443         1         0      4446         1         0      4449         1         0
      4452         1         0      4456         2         0      4472         2         0
      4483         1         0      4491         1         0      4500         1         0
      4503         1         0      4506         1         0      4509         1         0
      4512         1         0      4515         1         0      4518         1         0
      4520         1         0      4522         1         0      4525         1         0
      4528         1         0      4531         1         0      4534         1         0
      4537         1         0      4540         1         0      4543         1         0
      4547         1         0      4550         1         0      4553         1         0
      4556         1         0      4559         1         0      4562         1         0
      4565         1         0      4568         1         0      4571         1         0
      4574         1         0      4577         1         0      4580         1         0
      4583         1         0      4586         1         0      4590         2         0
      4606         2         0      4617         1         0      4625         1         0
      4634         1         0      4637         1         0      4640         1         0
      4643         1         0      4646         1         0      4649         1         0
      4652         1         0      4654         1         0      4656         1         0
      4659         1         0      4662         1         0      4665         1         0
      4668         1         0      4671         1         0      4674         1         0
      4677         1         0      4681         1         0      4684         1         0
      4687         1         0      4690         1         0      4693         1         0
      4696         1         0      4699         1         0      4702         1         0
      4705         1         0      4708         1         0      4711         1         0
      4714         1         0      4717         1         0      4720         1         0
      4724         2         0      4740         2         0      4751         1         0
      4759         1         0      4768         1         0      4771         1         0
      4774         1         0      4777         1         0      4780         1         0
      4783         1         0      4786         1         0      4788         1         0
      4790         1         0      4793         1         0      4796         1         0
      4799         1         0      4802         1         0      4805         1         0
      4808         1         0      4811         1         0      4815         1         0
      4818         1         0      4821         1         0      4824         1         0
      4827         1         0      4830         1         0      4833         1         0
      4836         1         0      4839         1         0      4842         1         0
      4845         1         0      4848         1         0      4851         1         0
      4854         1         0      4858         2         0      4874         2         0
      4885         1         0      4893         1         0      4902         1         0
      4905         1         0      4908         1         0      4911         1         0
      4914         1         0      4917         1         0      4920         1         0
      4922         1         0      4924         1         0      4927         1         0
      4930         1         0      4933         1         0      4936         1         0
      4939         1         0      4942         1         0      4945         1         0
      4949         1         0      4952         1         0      4955         1         0
      4958         1         0      4961         1         0      4964         1         0
      4967         1         0      4970         1         0      4973         1         0
      4976         1         0      4979         1         0      4982         1         0
      4985         1         0      4988         1         0      4992         2         0
      5008         2         0      5019         1         0      5027         1         0
      5036         1         0      5039         1         0      5042         1         0
      5045         1         0      5048         1         0      5051         1         0
      5054         1         0      5056         1         0      5058         1         0
      5061         1         0      5064         1         0      5067         1         0
      5070         1         0      5073         1         0      5076         1         0
      5079         1         0      5083         1         0      5086         1         0
      5089         1         0      5092         1         0      5095         1         0
      5098         1         0      5101         1         0      5104         1         0
      5107         1         0      5110         1         0      5113         1         0
      5116         1         0      5119         1         0      5122         1         0
      5126         2         0      5142         2         0      5153         1         0
      5161         1         0      5170         1         0      5173         1         0
      5176         1         0      5179         1         0      5182         1         0
      5185         1         0      5188         1         0      5190         1         0
      5192         1         0      5195         1         0      5198         1         0
      5201         1         0      5204         1         0      5207         1         0
      5210         1         0      5213         1         0      5217         1         0
      5220         1         0      5223         1         0      5226         1         0
      5229         1         0      5232         1         0      5235         1         0
      5238         1         0      5241         1         0      5244         1         0
      5247         1         0      5250         1         0      5253         1         0
      5256         1         0      5260         2         0      5276         2         0
      5287         1         0      5295         1         0      5304         1         0
      5307         1         0      5310         1         0      5313         1         0
      5316         1         0      5319         1         0      5322         1         0
      5324         1         0      5326         1         0      5329         1         0
      5332         1         0      5335         1         0      5338         1         0
      5341         1         0      5344         1         0      5347         1         0
      5351         1         0      5354         1         0      5357         1         0
      5360         1         0      5363         1         0      5366         1         0
      5369         1         0      5372         1         0      5375         1         0
      5378         1         0      5381         1         0      5384         1         0
      5387         1         0      5390         1         0      5394         2         0
      5410         2         0      5421         1         0      5429         1         0
      5438         1         0      5441         1         0      5444         1         0
      5447         1         0      5450         1         0      5453         1         0
      5456         1         0      5458         1         0      5460         1         0
      5463         1         0      5466         1         0      5469         1         0
      5472         1         0      5475         1         0      5478         1         0
      5481         1         0      5485         1         0      5488         1         0
      5491         1         0      5494         1         0      5497         1         0
      5500         1         0      5503         1         0      5506         1         0
      5509         1         0      5512         1         0      5515         1         0
      5518         1         0      5521         1         0      5524         1         0
      5528         2         0      5544         2         0      5555         1         0
      5563         1         0      5572         1         0      5575         1         0
      5578         1         0      5581         1         0      5584         1         0
      5587         1         0      5590         1         0      5592         1         0
      5594         1         0      5597         1         0      5600         1         0
      5603         1         0      5606         1         0      5609         1         0
      5612         1         0      5615         1         0      5619         1         0
      5622         1         0      5625         1         0      5628         1         0
      5631         1         0      5634         1         0      5637         1         0
      5640         1         0      5643         1         0      5646         1         0
      5649         1         0      5652         1         0      5655         1         0
      5658         1         0      5662         2         0      5678         2         0
      5689         1         0      5697         1         0      5706         1         0
      5709         1         0      5712         1         0      5715         1         0
      5718         1         0      5721         1         0      5724         1         0
      5726         1         0      5728         1         0      5731         1         0
      5734         1         0      5737         1         0      5740         1         0
      5743         1         0      5746         1         0      5749         1         0
      5753         1         0      5756         1         0      5759         1         0
      5762         1         0      5765         1         0      5768         1         0
      5771         1         0      5774         1         0      5777         1         0
      5780         1         0      5783         1         0      5786         1         0
      5789         1         0      5792         1         0      5796         2         0
      5812         2         0      5823         1         0      5831         1         0
      5840         1         0      5843         1         0      5846         1         0
      5849         1         0      5852         1         0      5855         1         0
      5858         1         0      5860         1         0      5862         1         0
      5865         1         0      5868         1         0      5871         1         0
      5874         1         0      5877         1         0      5880         1         0
      5883         1         0      5887         1         0      5890         1         0
      5893         1         0      5896         1         0      5899         1         0
      5902         1         0      5905         1         0      5908         1         0
      5911         1         0      5914         1         0      5917         1         0
      5920         1         0      5923         1         0      5926         1         0
      5930         2         0      5946         2         0      5957         1         0
      5965         1         0      5974         1         0      5977         1         0
      5980         1         0      5983         1         0      5986         1         0
      5989         1         0      5992         1         0      5994         1         0
      5996         1         0      5999         1         0      6002         1         0
      6005         1         0      6008         1         0      6011         1         0
      6014         1         0      6017         1         0      6021         1         0
      6024         1         0      6027         1         0      6030         1         0
      6033         1         0      6036         1         0      6039         1         0
      6042         1         0      6045         1         0      6048         1         0
      6051         1         0      6054         1         0      6057         1         0
      6060         1         0      6064         2         0      6080         2         0
      6091         1         0      6099         1         0      6108         1         0
      6111         1         0      6114         1         0      6117         1         0
      6120         1         0      6123         1         0      6126         1         0
      6128         1         0      6130         1         0      6133         1         0
      6136         1         0      6139         1         0      6142         1         0
      6145         1         0      6148         1         0      6151         1         0
      6155         1         0      6158         1         0      6161         1         0
      6164         1         0      6167         1         0      6170         1         0
      6173         1         0      6176         1         0      6179         1         0
      6182         1         0      6185         1         0      6188         1         0
      6191         1         0      6194         1         0      6198         2         0
      6214         2         0      6225         1         0      6233         1         0
      6242         1         0      6245         1         0      6248         1         0
      6251         1         0      6254         1         0      6257         1         0
      6260         1         0      6262         1         0      6264         1         0
      6267         1         0      6270         1         0      6273         1         0
      6276         1         0      6279         1         0      6282         1         0
      6285         1         0      6289         1         0      6292         1         0
      6295         1         0      6298         1         0      6301         1         0
      6304         1         0      6307         1         0      6310         1         0
      6313         1         0      6316         1         0      6319         1         0
      6322         1         0      6325         1         0      6328         1         0
      6332         2         0      6338         2         0      6341         2         0
      6352         1         0      6360         1         0      6369         1         0
      6372         1         0      6375         1         0      6378         1         0
      6381         1         0      6384         1         0      6387         1         0
      6389         1         0      6391         1         0      6394         1         0
      6397         1         0      6400         1         0      6403         1         0
      6406         1         0      6409         1         0      6412         1         0
      6416         1         0      6419         1         0      6422         1         0
      6425         1         0      6428         1         0      6431         1         0
      6434         1         0      6437         1         0      6440         1         0
      6443         1         0      6446         1         0      6449         1         0
      6452         1         0      6455         1         0      6459         2         0
      6465         2         0      6468         2         0      6479         1         0
      6487         1         0      6496         1         0      6499         1         0
      6502         1         0      6505         1         0      6508         1         0
      6511         1         0      6514         1         0      6516         1         0
      6518         1         0      6521         1         0      6524         1         0
      6527         1         0      6530         1         0      6533         1         0
      6536         1         0      6539         1         0      6543         1         0
      6546         1         0      6549         1         0      6552         1         0
      6555         1         0      6558         1         0      6561         1         0
      6564         1         0      6567         1         0      6570         1         0
      6573         1         0      6576         1         0      6579         1         0
      6582         1         0      6586         2         0      6602         2         0
      6613         1         0      6621         1         0      6630         1         0
      6633         1         0      6636         1         0      6639         1         0
      6642         1         0      6645         1         0      6648         1         0
      6650         1         0      6652         1         0      6655         1         0
      6658         1         0      6661         1         0      6664         1         0
      6667         1         0      6670         1         0      6673         1         0
      6677         1         0      6680         1         0      6683         1         0
      6686         1         0      6689         1         0      6692         1         0
      6695         1         0      6698         1         0      6701         1         0
      6704         1         0      6707         1         0      6710         1         0
      6713         1         0      6716         1         0      6720         2         0
      6736         2         0      6747         1         0      6755         1         0
      6764         1         0      6767         1         0      6770         1         0
      6773         1         0      6776         1         0      6779         1         0
      6782         1         0      6784         1         0      6786         1         0
      6789         1         0      6792         1         0      6795         1         0
      6798         1         0      6801         1         0      6804         1         0
      6807         1         0      6811         1         0      6814         1         0
      6817         1         0      6820         1         0      6823         1         0
      6826         1         0      6829         1         0      6832         1         0
      6835         1         0      6838         1         0      6841         1         0
      6844         1         0      6847         1         0      6850         1         0
      6854         2         0      6870         2         0      6881         1         0
      6889         1         0      6898         1         0      6901         1         0
      6904         1         0      6907         1         0      6910         1         0
      6913         1         0      6916         1         0      6918         1         0
      6920         1         0      6923         1         0      6926         1         0
      6929         1         0      6932         1         0      6935         1         0
      6938         1         0      6941         1         0      6945         1         0
      6948         1         0      6951         1         0      6954         1         0
      6957         1         0      6960         1         0      6963         1         0
      6966         1         0      6969         1         0      6972         1         0
      6975         1         0      6978         1         0      6981         1         0
      6984         1         0      6988         2         0      6994         2         0
      6997         2         0      7008         1         0      7016         1         0
      7025         1         0      7028         1         0      7031         1         0
      7034         1         0      7037         1         0      7040         1         0
      7043         1         0      7045         1         0      7047         1         0
      7050         1         0      7053         1         0      7056         1         0
      7059         1         0      7062         1         0      7065         1         0
      7068         1         0      7072         1         0      7075         1         0
      7078         1         0      7081         1         0      7084         1         0
      7087         1         0      7090         1         0      7093         1         0
      7096         1         0      7099         1         0      7102         1         0
      7105         1         0      7108         1         0      7111         1         0
      7115         2         0      7131         2         0      7142         1         0
      7150         1         0      7159         1         0      7162         1         0
      7165         1         0      7168         1         0      7171         1         0
      7174         1         0      7177         1         0      7179         1         0
      7181         1         0      7184         1         0      7187         1         0
      7190         1         0      7193         1         0      7196         1         0
      7199         1         0      7202         1         0      7206         1         0
      7209         1         0      7212         1         0      7215         1         0
      7218         1         0      7221         1         0      7224         1         0
      7227         1         0      7230         1         0      7233         1         0
      7236         1         0      7239         1         0      7242         1         0
      7245         1         0      7249         2         0      7265         2         0
      7276         1         0      7284         1         0      7293         1         0
      7296         1         0      7299         1         0      7302         1         0
      7305         1         0      7308         1         0      7311         1         0
      7313         1         0      7315         1         0      7318         1         0
      7321         1         0      7324         1         0      7327         1         0
      7330         1         0      7333         1         0      7336         1         0
      7340         1         0      7343         1         0      7346         1         0
      7349         1         0      7352         1         0      7355         1         0
      7358         1         0      7361         1         0      7364         1         0
      7367         1         0      7370         1         0      7373         1         0
      7376         1         0      7379         1         0      7383         2         0
      7389         2         0      7392         2         0      7403         1         0
      7411         1         0      7420         1         0      7423         1         0
      7426         1         0      7429         1         0      7432         1         0
      7435         1         0      7438         1         0      7440         1         0
      7442         1         0      7445         1         0      7448         1         0
      7451         1         0      7454         1         0      7457         1         0
      7460         1         0      7463         1         0      7467         1         0
      7470         1         0      7473         1         0      7476         1         0
      7479         1         0      7482         1         0      7485         1         0
      7488         1         0      7491         1         0      7494         1         0
      7497         1         0      7500         1         0      7503         1         0
      7506         1         0      7510         2         0      7526         2         0
      7537         1         0      7545         1         0      7554         1         0
      7557         1         0      7560         1         0      7563         1         0
      7566         1         0      7569         1         0      7572         1         0
      7574         1         0      7576         1         0      7579         1         0
      7582         1         0      7585         1         0      7588         1         0
      7591         1         0      7594         1         0      7597         1         0
      7601         1         0      7604         1         0      7607         1         0
      7610         1         0      7613         1         0      7616         1         0
      7619         1         0      7622         1         0      7625         1         0
      7628         1         0      7631         1         0      7634         1         0
      7637         1         0      7640         1         0      7644         2         0
      7660         2         0      7671         1         0      7679         1         0
      7688         1         0      7691         1         0      7694         1         0
      7697         1         0      7700         1         0      7703         1         0
      7706         1         0      7708         1         0      7710         1         0
      7713         1         0      7716         1         0      7719         1         0
      7722         1         0      7725         1         0      7728         1         0
      7731         1         0      7735         1         0      7738         1         0
      7741         1         0      7744         1         0      7747         1         0
      7750         1         0      7753         1         0      7756         1         0
      7759         1         0      7762         1         0      7765         1         0
      7768         1         0      7771         1         0      7774         1         0
      7778         2         0      7794         2         0      7805         1         0
      7813         1         0      7822         1         0      7825         1         0
      7828         1         0      7831         1         0      7834         1         0
      7837         1         0      7840         1         0      7842         1         0
      7844         1         0      7847         1         0      7850         1         0
      7853         1         0      7856         1         0      7859         1         0
      7862         1         0      7865         1         0      7869         1         0
      7872         1         0      7875         1         0      7878         1         0
      7881         1         0      7884         1         0      7887         1         0
      7890         1         0      7893         1         0      7896         1         0
      7899         1         0      7902         1         0      7905         1         0
      7908         1         0      7912         2         0      7928         2         0
      7939         1         0      7947         1         0      7956         1         0
      7959         1         0      7962         1         0      7965         1         0
      7968         1         0      7971         1         0      7974         1         0
      7976         1         0      7978         1         0      7981         1         0
      7984         1         0      7987         1         0      7990         1         0
      7993         1         0      7996         1         0      7999         1         0
      8003         1         0      8006         1         0      8009         1         0
      8012         1         0      8015         1         0      8018         1         0
      8021         1         0      8024         1         0      8027         1         0
      8030         1         0      8033         1         0      8036         1         0
      8039         1         0      8042         1         0      8046         2         0
      8062         2         0      8073         1         0      8081         1         0
      8090         1         0      8093         1         0      8096         1         0
      8099         1         0      8102         1         0      8105         1         0
      8108         1         0      8110         1         0      8112         1         0
      8115         1         0      8118         1         0      8121         1         0
      8124         1         0      8127         1         0      8130         1         0
      8133         1         0      8137         1         0      8140         1         0
      8143         1         0      8146         1         0      8149         1         0
      8152         1         0      8155         1         0      8158         1         0
      8161         1         0      8164         1         0      8167         1         0
      8170         1         0      8173         1         0      8176         1         0
      8180         2         0      8196         2         0      8207         1         0
      8215         1         0      8224         1         0      8227         1         0
      8230         1         0      8233         1         0      8236         1         0
      8239         1         0      8242         1         0      8244         1         0
      8246         1         0      8249         1         0      8252         1         0
      8255         1         0      8258         1         0      8261         1         0
      8264         1         0      8267         1         0      8271         1         0
      8274         1         0      8277         1         0      8280         1         0
      8283         1         0      8286         1         0      8289         1         0
      8292         1         0      8295         1         0      8298         1         0
      8301         1         0      8304         1         0      8307         1         0
      8310         1         0      8314         2         0      8330         2         0
      8341         1         0      8349         1         0      8358         1         0
      8361         1         0      8364         1         0      8367         1         0
      8370         1         0      8373         1         0      8376         1         0
      8378         1         0      8380         1         0      8383         1         0
      8386         1         0      8389         1         0      8392         1         0
      8395         1         0      8398         1         0      8401         1         0
      8405         1         0      8408         1         0      8411         1         0
      8414         1         0      8417         1         0      8420         1         0
      8423         1         0      8426         1         0      8429         1         0
      8432         1         0      8435         1         0      8438         1         0
      8441         1         0      8444         1         0      8448         2         0
      8464         2         0      8475         1         0      8483         1         0
      8492         1         0      8495         1         0      8498         1         0
      8501         1         0      8504         1         0      8507         1         0
      8510         1         0      8512         1         0      8514         1         0
      8517         1         0      8520         1         0      8523         1         0
      8526         1         0      8529         1         0      8532         1         0
      8535         1         0      8539         1         0      8542         1         0
      8545         1         0      8548         1         0      8551         1         0
      8554         1         0      8557         1         0      8560         1         0
      8563         1         0      8566         1         0      8569         1         0
      8572         1         0      8575         1         0      8578         1         0
      8582         2         0      8598         2         0      8609         1         0
      8617         1         0      8626         1         0      8629         1         0
      8632         1         0      8635         1         0      8638         1         0
      8641         1         0      8644         1         0      8646         1         0
      8648         1         0      8651         1         0      8654         1         0
      8657         1         0      8660         1         0      8663         1         0
      8666         1         0      8669         1         0      8673         1         0
      8676         1         0      8679         1         0      8682         1         0
      8685         1         0      8688         1         0      8691         1         0
      8694         1         0      8697         1         0      8700         1         0
      8703         1         0      8706         1         0      8709         1         0
      8712         1         0      8716         2         0      8732         2         0
      8743         1         0      8751         1         0      8760         1         0
      8763         1         0      8766         1         0      8769         1         0
      8772         1         0      8775         1         0      8778         1         0
      8780         1         0      8782         1         0      8785         1         0
      8788         1         0      8791         1         0      8794         1         0
      8797         1         0      8800         1         0      8803         1         0
      8807         1         0      8810         1         0      8813         1         0
      8816         1         0      8819         1         0      8822         1         0
      8825         1         0      8828         1         0      8831         1         0
      8834         1         0      8837         1         0      8840         1         0
      8843         1         0      8846         1         0      8850         2         0
      8866         2         0      8877         1         0      8885         1         0
      8894         1         0      8897         1         0      8900         1         0
      8903         1         0      8906         1         0      8909         1         0
      8912         1         0      8914         1         0      8916         1         0
      8919         1         0      8922         1         0      8925         1         0
      8928         1         0      8931         1         0      8934         1         0
      8937         1         0      8941         1         0      8944         1         0
      8947         1         0      8950         1         0      8953         1         0
      8956         1         0      8959         1         0      8962         1         0
      8965         1         0      8968         1         0      8971         1         0
      8974         1         0      8977         1         0      8980         1         0
      8984         2         0      9000         2         0      9011         1         0
      9019         1         0      9028         1         0      9031         1         0
      9034         1         0      9037         1         0      9040         1         0
      9043         1         0      9046         1         0      9048         1         0
      9050         1         0      9053         1         0      9056         1         0
      9059         1         0      9062         1         0      9065         1         0
      9068         1         0      9071         1         0      9075         1         0
      9078         1         0      9081         1         0      9084         1         0
      9087         1         0      9090         1         0      9093         1         0
      9096         1         0      9099         1         0      9102         1         0
      9105         1         0      9108         1         0      9111         1         0
      9114         1         0      9118         2         0      9134         2         0
      9145         1         0      9153         1         0      9162         1         0
      9165         1         0      9168         1         0      9171         1         0
      9174         1         0      9177         1         0      9180         1         0
      9182         1         0      9184         1         0      9187         1         0
      9190         1         0      9193         1         0      9196         1         0
      9199         1         0      9202         1         0      9205         1         0
      9209         1         0      9212         1         0      9215         1         0
      9218         1         0      9221         1         0      9224         1         0
      9227         1         0      9230         1         0      9233         1         0
      9236         1         0      9239         1         0      9242         1         0
      9245         1         0      9248         1         0      9252         2         0
      9268         2         0      9279         1         0      9287         1         0
      9296         1         0      9299         1         0      9302         1         0
      9305         1         0      9308         1         0      9311         1         0
      9314         1         0      9316         1         0      9318         1         0
      9321         1         0      9324         1         0      9327         1         0
      9330         1         0      9333         1         0      9336         1         0
      9339         1         0      9343         1         0      9346         1         0
      9349         1         0      9352         1         0      9355         1         0
      9358         1         0      9361         1         0      9364         1         0
      9367         1         0      9370         1         0      9373         1         0
      9376         1         0      9379         1         0      9382         1         0
      9386         2         0      9402         2         0      9413         1         0
      9421         1         0      9430         1         0      9433         1         0
      9436         1         0      9439         1         0      9442         1         0
      9445         1         0      9448         1         0      9450         1         0
      9452         1         0      9455         1         0      9458         1         0
      9461         1         0      9464         1         0      9467         1         0
      9470         1         0      9473         1         0      9477         1         0
      9480         1         0      9483         1         0      9486         1         0
      9489         1         0      9492         1         0      9495         1         0
      9498         1         0      9501         1         0      9504         1         0
      9507         1         0      9510         1         0      9513         1         0
      9516         1         0      9520         2         0      9526         2         0
      9529         2         0      9540         1         0      9548         1         0
      9557         1         0      9560         1         0      9563         1         0
      9566         1         0      9569         1         0      9572         1         0
      9575         1         0      9577         1         0      9579         1         0
      9582         1         0      9585         1         0      9588         1         0
      9591         1         0      9594         1         0      9597         1         0
      9600         1         0      9604         1         0      9607         1         0
      9610         1         0      9613         1         0      9616         1         0
      9619         1         0      9622         1         0      9625         1         0
      9628         1         0      9631         1         0      9634         1         0
      9637         1         0      9640         1         0      9643         1         0
      9647         2         0      9653         2         0      9656         2         0
      9667         1         0      9675         1         0      9684         1         0
      9687         1         0      9690         1         0      9693         1         0
      9696         1         0      9699         1         0      9702         1         0
      9704         1         0      9706         1         0      9709         1         0
      9712         1         0      9715         1         0      9718         1         0
      9721         1         0      9724         1         0      9727         1         0
      9731         1         0      9734         1         0      9737         1         0
      9740         1         0      9743         1         0      9746         1         0
      9749         1         0      9752         1         0      9755         1         0
      9758         1         0      9761         1         0      9764         1         0
      9767         1         0      9770         1         0      9774         2         0
      9790         2         0      9801         1         0      9809         1         0
      9818         1         0      9821         1         0      9824         1         0
      9827         1         0      9830         1         0      9833         1         0
      9836         1         0      9838         1         0      9840         1         0
      9843         1         0      9846         1         0      9849         1         0
      9852         1         0      9855         1         0      9858         1         0
      9861         1         0      9865         1         0      9868         1         0
      9871         1         0      9874         1         0      9877         1         0
      9880         1         0      9883         1         0      9886         1         0
      9889         1         0      9892         1         0      9895         1         0
      9898         1         0      9901         1         0      9904         1         0
      9908         2         0      9924         2         0      9935         1         0
      9943         1         0      9952         1         0      9955         1         0
      9958         1         0      9961         1         0      9964         1         0
      9967         1         0      9970         1         0      9972         1         0
      9974         1         0      9977         1         0      9980         1         0
      9983         1         0      9986         1         0      9989         1         0
      9992         1         0      9995         1         0      9999         1         0
     10002         1         0     10005         1         0     10008         1         0
     10011         1         0     10014         1         0     10017         1         0
     10020         1         0     10023         1         0     10026         1         0
     10029         1         0     10032         1         0     10035         1         0
     10038         1         0     10042         2         0     10058         2         0
     10069         1         0     10077         1         0     10086         1         0
     10089         1         0     10092         1         0     10095         1         0
     10098         1         0     10101         1         0     10104         1         0
     10106         1         0     10108         1         0     10111         1         0
     10114         1         0     10117         1         0     10120         1         0
     10123         1         0     10126         1         0     10129         1         0
     10133         1         0     10136         1         0     10139         1         0
     10142         1         0     10145         1         0     10148         1         0
     10151         1         0     10154         1         0     10157         1         0
     10160         1         0     10163         1         0     10166         1         0
     10169         1         0     10172         1         0     10176         2         0
     10192         2         0     10203         1         0     10211         1         0
     10220         1         0     10223         1         0     10226         1         0
     10229         1         0     10232         1         0     10235         1         0
     10238         1         0     10240         1         0     10242         1         0
     10245         1         0     10248         1         0     10251         1         0
     10254         1         0     10257         1         0     10260         1         0
     10263         1         0     10267         1         0     10270         1         0
     10273         1         0     10276         1         0     10279         1         0
     10282         1         0     10285         1         0     10288         1         0
     10291         1         0     10294         1         0     10297         1         0
     10300         1         0     10303         1         0     10306         1         0
     10310         2         0     10326         2         0     10337         1         0
     10345         1         0     10354         1         0     10357         1         0
     10360         1         0     10363         1         0     10366         1         0
     10369         1         0     10372         1         0     10374         1         0
     10376         1         0     10379         1         0     10382         1         0
     10385         1         0     10388         1         0     10391         1         0
     10394         1         0     10397         1         0     10401         1         0
     10404         1         0     10407         1         0     10410         1         0
     10413         1         0     10416         1         0     10419         1         0
     10422         1         0     10425         1         0     10428         1         0
     10431         1         0     10434         1         0     10437         1         0
     10440         1         0     10444         2         0     10460         2         0
     10471         1         0     10479         1         0     10488         1         0
     10491         1         0     10494         1         0     10497         1         0
     10500         1         0     10503         1         0     10506         1         0
     10508         1         0     10510         1         0     10513         1         0
     10516         1         0     10519         1         0     10522         1         0
     10525         1         0     10528         1         0     10531         1         0
     10535         1         0     10538         1         0     10541         1         0
     10544         1         0     10547         1         0     10550         1         0
     10553         1         0     10556         1         0     10559         1         0
     10562         1         0     10565         1         0     10568         1         0
     10571         1         0     10574         1         0     10578         2         0
     10594         2         0     10605         1         0     10613         1         0
     10622         1         0     10625         1         0     10628         1         0
     10631         1         0     10634         1         0     10637         1         0
     10640         1         0     10642         1         0     10644         1         0
     10647         1         0     10650         1         0     10653         1         0
     10656         1         0     10659         1         0     10662         1         0
     10665         1         0     10669         1         0     10672         1         0
     10675         1         0     10678         1         0     10681         1         0
     10684         1         0     10687         1         0     10690         1         0
     10693         1         0     10696         1         0     10699         1         0
     10702         1         0     10705         1         0     10708         1         0
     10712         2         0     10728         2         0     10739         1         0
     10747         1         0     10756         1         0     10759         1         0
     10762         1         0     10765         1         0     10768         1         0
     10771         1         0     10774         1         0     10776         1         0
     10778         1         0     10781         1         0     10784         1         0
     10787         1         0     10790         1         0     10793         1         0
     10796         1         0     10799         1         0     10803         1         0
     10806         1         0     10809         1         0     10812         1         0
     10815         1         0     10818         1         0     10821         1         0
     10824         1         0     10827         1         0     10830         1         0
     10833         1         0     10836         1         0     10839         1         0
     10842         1         0     10846         2         0     10862         2         0
     10873         1         0     10881         1         0     10890         1         0
     10893         1         0     10896         1         0     10899         1         0
     10902         1         0     10905         1         0     10908         1         0
     10910         1         0     10912         1         0     10915         1         0
     10918         1         0     10921         1         0     10924         1         0
     10927         1         0     10930         1         0     10933         1         0
     10937         1         0     10940         1         0     10943         1         0
     10946         1         0     10949         1         0     10952         1         0
     10955         1         0     10958         1         0     10961         1         0
     10964         1         0     10967         1         0     10970         1         0
     10973         1         0     10976         1         0     10980         2         0
     10996         2         0     11007         1         0     11015         1         0
     11024         1         0     11027         1         0     11030         1         0
     11033         1         0     11036         1         0     11039         1         0
     11042         1         0     11044         1         0     11046         1         0
     11049         1         0     11052         1         0     11055         1         0
     11058         1         0     11061         1         0     11064         1         0
     11067         1         0     11071         1         0     11074         1         0
     11077         1         0     11080         1         0     11083         1         0
     11086         1         0     11089         1         0     11092         1         0
     11095         1         0     11098         1         0     11101         1         0
     11104         1         0     11107         1         0     11110         1         0
     11114         2         0     11130         2         0     11141         1         0
     11149         1         0     11158         1         0     11161         1         0
     11164         1         0     11167         1         0     11170         1         0
     11173         1         0     11176         1         0     11178         1         0
     11180         1         0     11183         1         0     11186         1         0
     11189         1         0     11192         1         0     11195         1         0
     11198         1         0     11201         1         0     11205         1         0
     11208         1         0     11211         1         0     11214         1         0
     11217         1         0     11220         1         0     11223         1         0
     11226         1         0     11229         1         0     11232         1         0
     11235         1         0     11238         1         0     11241         1         0
     11244         1         0     11248         2         0     11264         2         0
     11275         1         0     11283         1         0     11292         1         0
     11295         1         0     11298         1         0     11301         1         0
     11304         1         0     11307         1         0     11310         1         0
     11312         1         0     11314         1         0     11317         1         0
     11320         1         0     11323         1         0     11326         1         0
     11329         1         0     11332         1         0     11335         1         0
     11339         1         0     11342         1         0     11345         1         0
     11348         1         0     11351         1         0     11354         1         0
     11357         1         0     11360         1         0     11363         1         0
     11366         1         0     11369         1         0     11372         1         0
     11375         1         0     11378         1         0     11382         2         0
     11398         2         0     11409         1         0     11417         1         0
     11426         1         0     11429         1         0     11432         1         0
     11435         1         0     11438         1         0     11441         1         0
     11444         1         0     11446         1         0     11448         1         0
     11451         1         0     11454         1         0     11457         1         0
     11460         1         0     11463         1         0     11466         1         0
     11469         1         0     11473         1         0     11476         1         0
     11479         1         0     11482         1         0     11485         1         0
     11488         1         0     11491         1         0     11494         1         0
     11497         1         0     11500         1         0     11503         1         0
     11506         1         0     11509         1         0     11512         1         0
     11516         2         0     11532         2         0     11543         1         0
     11551         1         0     11560         1         0     11563         1         0
     11566         1         0     11569         1         0     11572         1         0
     11575         1         0     11578         1         0     11580         1         0
     11582         1         0     11585         1         0     11588         1         0
     11591         1         0     11594         1         0     11597         1         0
     11600         1         0     11603         1         0     11607         1         0
     11610         1         0     11613         1         0     11616         1         0
     11619         1         0     11622         1         0     11625         1         0
     11628         1         0     11631         1         0     11634         1         0
     11637         1         0     11640         1         0     11643         1         0
     11646         1         0     11650         2         0     11666         2         0
     11677         1         0     11685         1         0     11694         1         0
     11697         1         0     11700         1         0     11703         1         0
     11706         1         0     11709         1         0     11712         1         0
     11714         1         0     11716         1         0     11719         1         0
     11722         1         0     11725         1         0     11728         1         0
     11731         1         0     11734         1         0     11737         1         0
     11741         1         0     11744         1         0     11747         1         0
     11750         1         0     11753         1         0     11756         1         0
     11759         1         0     11762         1         0     11765         1         0
     11768         1         0     11771         1         0     11774         1         0
     11777         1         0     11780         1         0     11784         2         0
     11800         2         0     11811         1         0     11819         1         0
     11828         1         0     11831         1         0     11834         1         0
     11837         1         0     11840         1         0     11843         1         0
     11846         1         0     11848         1         0     11850         1         0
     11853         1         0     11856         1         0     11859         1         0
     11862         1         0     11865         1         0     11868         1         0
     11871         1         0     11875         1         0     11878         1         0
     11881         1         0     11884         1         0     11887         1         0
     11890         1         0     11893         1         0     11896         1         0
     11899         1         0     11902         1         0     11905         1         0
     11908         1         0     11911         1         0     11914         1         0
     11918         2         0     11934         2         0     11945         1         0
     11953         1         0     11962         1         0     11965         1         0
     11968         1         0     11971         1         0     11974         1         0
     11977         1         0     11980         1         0     11982         1         0
     11984         1         0     11987         1         0     11990         1         0
     11993         1         0     11996         1         0     11999         1         0
     12002         1         0     12005         1         0     12009         1         0
     12012         1         0     12015         1         0     12018         1         0
     12021         1         0     12024         1         0     12027         1         0
     12030         1         0     12033         1         0     12036         1         0
     12039         1         0     12042         1         0     12045         1         0
     12048         1         0     12052         2         0     12058         2         0
     12061         2         0     12072         1         0     12080         1         0
     12089         1         0     12092         1         0     12095         1         0
     12098         1         0     12101         1         0     12104         1         0
     12107         1         0     12109         1         0     12111         1         0
     12114         1         0     12117         1         0     12120         1         0
     12123         1         0     12126         1         0     12129         1         0
     12132         1         0     12136         1         0     12139         1         0
     12142         1         0     12145         1         0     12148         1         0
     12151         1         0     12154         1         0     12157         1         0
     12160         1         0     12163         1         0     12166         1         0
     12169         1         0     12172         1         0     12175         1         0
     12179         2         0     12195         2         0     12206         1         0
     12214         1         0     12223         1         0     12226         1         0
     12229         1         0     12232         1         0     12235         1         0
     12238         1         0     12241         1         0     12243         1         0
     12245         1         0     12248         1         0     12251         1         0
     12254         1         0     12257         1         0     12260         1         0
     12263         1         0     12266         1         0     12270         1         0
     12273         1         0     12276         1         0     12279         1         0
     12282         1         0     12285         1         0     12288         1         0
     12291         1         0     12294         1         0     12297         1         0
     12300         1         0     12303         1         0     12306         1         0
     12309         1         0     12313         2         0     12319         2         0
     12322         2         0     12333         1         0     12341         1         0
     12350         1         0     12353         1         0     12356         1         0
     12359         1         0     12362         1         0     12365         1         0
     12368         1         0     12370         1         0     12372         1         0
     12375         1         0     12378         1         0     12381         1         0
     12384         1         0     12387         1         0     12390         1         0
     12393         1         0     12397         1         0     12400         1         0
     12403         1         0     12406         1         0     12409         1         0
     12412         1         0     12415         1         0     12418         1         0
     12421         1         0     12424         1         0     12427         1         0
     12430         1         0     12433         1         0     12436         1         0
     12440         2         0     12456         2         0     12467         1         0
     12475         1         0     12484         1         0     12487         1         0
     12490         1         0     12493         1         0     12496         1         0
     12499         1         0     12502         1         0     12504         1         0
     12506         1         0     12509         1         0     12512         1         0
     12515         1         0     12518         1         0     12521         1         0
     12524         1         0     12527         1         0     12531         1         0
     12534         1         0     12537         1         0     12540         1         0
     12543         1         0     12546         1         0     12549         1         0
     12552         1         0     12555         1         0     12558         1         0
     12561         1         0     12564         1         0     12567         1         0
     12570         1         0     12574         2         0     12590         2         0
     12601         1         0     12609         1         0     12618         1         0
     12621         1         0     12624         1         0     12627         1         0
     12630         1         0     12633         1         0     12636         1         0
     12638         1         0     12640         1         0     12643         1         0
     12646         1         0     12649         1         0     12652         1         0
     12655         1         0     12658         1         0     12661         1         0
     12665         1         0     12668         1         0     12671         1         0
     12674         1         0     12677         1         0     12680         1         0
     12683         1         0     12686         1         0     12689         1         0
     12692         1         0     12695         1         0     12698         1         0
     12701         1         0     12704         1         0     12708         2         0
     12724         2         0     12735         1         0     12743         1         0
     12752         1         0     12755         1         0     12758         1         0
     12761         1         0     12764         1         0     12767         1         0
     12770         1         0     12772         1         0     12774         1         0
     12777         1         0     12780         1         0     12783         1         0
     12786         1         0     12789         1         0     12792         1         0
     12795         1         0     12799         1         0     12802         1         0
     12805         1         0     12808         1         0     12811         1         0
     12814         1         0     12817         1         0     12820         1         0
     12823         1         0     12826         1         0     12829         1         0
     12832         1         0     12835         1         0     12838         1         0
     12842         2         0     12858         2         0     12869         1         0
     12877         1         0     12886         1         0     12889         1         0
     12892         1         0     12895         1         0     12898         1         0
     12901         1         0     12904         1         0     12906         1         0
     12908         1         0     12911         1         0     12914         1         0
     12917         1         0     12920         1         0     12923         1         0
     12926         1         0     12929         1         0     12933         1         0
     12936         1         0     12939         1         0     12942         1         0
     12945         1         0     12948         1         0     12951         1         0
     12954         1         0     12957         1         0     12960         1         0
     12963         1         0     12966         1         0     12969         1         0
     12972         1         0     12976         2         0     12992         2         0
     13003         1         0     13011         1         0     13020         1         0
     13023         1         0     13026         1         0     13029         1         0
     13032         1         0     13035         1         0     13038         1         0
     13040         1         0     13042         1         0     13045         1         0
     13048         1         0     13051         1         0     13054         1         0
     13057         1         0     13060         1         0     13063         1         0
     13067         1         0     13070         1         0     13073         1         0
     13076         1         0     13079         1         0     13082         1         0
     13085         1         0     13088         1         0     13091         1         0
     13094         1         0     13097         1         0     13100         1         0
     13103         1         0     13106         1         0     13110         2         0
     13126         2         0     13137         1         0     13145         1         0
     13154         1         0     13157         1         0     13160         1         0
     13163         1         0     13166         1         0     13169         1         0
     13172         1         0     13174         1         0     13176         1         0
     13179         1         0     13182         1         0     13185         1         0
     13188         1         0     13191         1         0     13194         1         0
     13197         1         0     13201         1         0     13204         1         0
     13207         1         0     13210         1         0     13213         1         0
     13216         1         0     13219         1         0     13222         1         0
     13225         1         0     13228         1         0     13231         1         0
     13234         1         0     13237         1         0     13240         1         0
     13244         2         0     13260         2         0     13271         1         0
     13279         1         0     13288         1         0     13291         1         0
     13294         1         0     13297         1         0     13300         1         0
     13303         1         0     13306         1         0     13308         1         0
     13310         1         0     13313         1         0     13316         1         0
     13319         1         0     13322         1         0     13325         1         0
     13328         1         0     13331         1         0     13335         1         0
     13338         1         0     13341         1         0     13344         1         0
     13347         1         0     13350         1         0     13353         1         0
     13356         1         0     13359         1         0     13362         1         0
     13365         1         0     13368         1         0     13371         1         0
     13374         1         0     13378         2         0     13394         2         0
     13405         1         0     13413         1         0     13422         1         0
     13425         1         0     13428         1         0     13431         1         0
     13434         1         0     13437         1         0     13440         1         0
     13442         1         0     13444         1         0     13447         1         0
     13450         1         0     13453         1         0     13456         1         0
     13459         1         0     13462         1         0     13465         1         0
     13469         1         0     13472         1         0     13475         1         0
     13478         1         0     13481         1         0     13484         1         0
     13487         1         0     13490         1         0     13493         1         0
     13496         1         0     13499         1         0     13502         1         0
     13505         1         0     13508         1         0     13512         2         0
     13528         2         0     13539         1         0     13547         1         0
     13556         1         0     13559         1         0     13562         1         0
     13565         1         0     13568         1         0     13571         1         0
     13574         1         0     13576         1         0     13578         1         0
     13581         1         0     13584         1         0     13587         1         0
     13590         1         0     13593         1         0     13596         1         0
     13599         1         0     13603         1         0     13606         1         0
     13609         1         0     13612         1         0     13615         1         0
     13618         1         0     13621         1         0     13624         1         0
     13627         1         0     13630         1         0     13633         1         0
     13636         1         0     13639         1         0     13642         1         0
     13646         2         0     13652         2         0     13655         2         0
     13666         1         0     13674         1         0     13683         1         0
     13686         1         0     13689         1         0     13692         1         0
     13695         1         0     13698         1         0     13701         1         0
     13703         1         0     13705         1         0     13708         1         0
     13711         1         0     13714         1         0     13717         1         0
     13720         1         0     13723         1         0     13726         1         0
     13730         1         0     13733         1         0     13736         1         0
     13739         1         0     13742         1         0     13745         1         0
     13748         1         0     13751         1         0     13754         1         0
     13757         1         0     13760         1         0     13763         1         0
     13766         1         0     13769         1         0     13773         2         0
     13789         2         0     13800         1         0     13808         1         0
     13817         1         0     13820         1         0     13823         1         0
     13826         1         0     13829         1         0     13832         1         0
     13835         1         0     13837         1         0     13839         1         0
     13842         1         0     13845         1         0     13848         1         0
     13851         1         0     13854         1         0     13857         1         0
     13860         1         0     13864         1         0     13867         1         0
     13870         1         0     13873         1         0     13876         1         0
     13879         1         0     13882         1         0     13885         1         0
     13888         1         0     13891         1         0     13894         1         0
     13897         1         0     13900         1         0     13903         1         0
     13907         2         0     13923         2         0     13934         1         0
     13942         1         0     13951         1         0     13954         1         0
     13957         1         0     13960         1         0     13963         1         0
     13966         1         0     13969         1         0     13971         1         0
     13973         1         0     13976         1         0     13979         1         0
     13982         1         0     13985         1         0     13988         1         0
     13991         1         0     13994         1         0     13998         1         0
     14001         1         0     14004         1         0     14007         1         0
     14010         1         0     14013         1         0     14016         1         0
     14019         1         0     14022         1         0     14025         1         0
     14028         1         0     14031         1         0     14034         1         0
     14037         1         0     14041         2         0     14047         2         0
     14050         2         0     14061         1         0     14069         1         0
     14078         1         0     14081         1         0     14084         1         0
     14087         1         0     14090         1         0     14093         1         0
     14096         1         0     14098         1         0     14100         1         0
     14103         1         0     14106         1         0     14109         1         0
     14112         1         0     14115         1         0     14118         1         0
     14121         1         0     14125         1         0     14128         1         0
     14131         1         0     14134         1         0     14137         1         0
     14140         1         0     14143         1         0     14146         1         0
     14149         1         0     14152         1         0     14155         1         0
     14158         1         0     14161         1         0     14164         1         0
     14168         2         0     14184         2         0     14195         1         0
     14203         1         0     14212         1         0     14215         1         0
     14218         1         0     14221         1         0     14224         1         0
     14227         1         0     14230         1         0     14232         1         0
     14234         1         0     14237         1         0     14240         1         0
     14243         1         0     14246         1         0     14249         1         0
     14252         1         0     14255         1         0     14259         1         0
     14262         1         0     14265         1         0     14268         1         0
     14271         1         0     14274         1         0     14277         1         0
     14280         1         0     14283         1         0     14286         1         0
     14289         1         0     14292         1         0     14295         1         0
     14298         1         0     14302         2         0     14318         2         0
     14329         1         0     14337         1         0     14346         1         0
     14349         1         0     14352         1         0     14355         1         0
     14358         1         0     14361         1         0     14364         1         0
     14366         1         0     14368         1         0     14371         1         0
     14374         1         0     14377         1         0     14380         1         0
     14383         1         0     14386         1         0     14389         1         0
     14393         1         0     14396         1         0     14399         1         0
     14402         1         0     14405         1         0     14408         1         0
     14411         1         0     14414         1         0     14417         1         0
     14420         1         0     14423         1         0     14426         1         0
     14429         1         0     14432         1         0     14436         2         0
     14452         2         0     14463         1         0     14471         1         0
     14480         1         0     14483         1         0     14486         1         0
     14489         1         0     14492         1         0     14495         1         0
     14498         1         0     14500         1         0     14502         1         0
     14505         1         0     14508         1         0     14511         1         0
     14514         1         0     14517         1         0     14520         1         0
     14523         1         0     14527         1         0     14530         1         0
     14533         1         0     14536         1         0     14539         1         0
     14542         1         0     14545         1         0     14548         1         0
     14551         1         0     14554         1         0     14557         1         0
     14560         1         0     14563         1         0     14566         1         0
     14570         2         0     14576         2         0     14579         2         0
     14590         1         0     14598         1         0     14607         1         0
     14610         1         0     14613         1         0     14616         1         0
     14619         1         0     14622         1         0     14625         1         0
     14627         1         0     14629         1         0     14632         1         0
     14635         1         0     14638         1         0     14641         1         0
     14644         1         0     14647         1         0     14650         1         0
     14654         1         0     14657         1         0     14660         1         0
     14663         1         0     14666         1         0     14669         1         0
     14672         1         0     14675         1         0     14678         1         0
     14681         1         0     14684         1         0     14687         1         0
     14690         1         0     14693         1         0     14697         2         0
     14703         2         0     14706         2         0     14717         1         0
     14725         1         0     14734         1         0     14737         1         0
     14740         1         0     14743         1         0     14746         1         0
     14749         1         0     14752         1         0     14754         1         0
     14756         1         0     14759         1         0     14762         1         0
     14765         1         0     14768         1         0     14771         1         0
     14774         1         0     14777         1         0     14781         1         0
     14784         1         0     14787         1         0     14790         1         0
     14793         1         0     14796         1         0     14799         1         0
     14802         1         0     14805         1         0     14808         1         0
     14811         1         0     14814         1         0     14817         1         0
     14820         1         0     14824         2         0     14840         2         0
     14851         1         0     14859         1         0     14868         1         0
     14871         1         0     14874         1         0     14877         1         0
     14880         1         0     14883         1         0     14886         1         0
     14888         1         0     14890         1         0     14893         1         0
     14896         1         0     14899         1         0     14902         1         0
     14905         1         0     14908         1         0     14911         1         0
     14915         1         0     14918         1         0     14921         1         0
     14924         1         0     14927         1         0     14930         1         0
     14933         1         0     14936         1         0     14939         1         0
     14942         1         0     14945         1         0     14948         1         0
     14951         1         0     14954         1         0     14958         2         0
     14974         2         0     14985         1         0     14993         1         0
     15002         1         0     15005         1         0     15008         1         0
     15011         1         0     15014         1         0     15017         1         0
     15020         1         0     15022         1         0     15024         1         0
     15027         1         0     15030         1         0     15033         1         0
     15036         1         0     15039         1         0     15042         1         0
     15045         1         0     15049         1         0     15052         1         0
     15055         1         0     15058         1         0     15061         1         0
     15064         1         0     15067         1         0     15070         1         0
     15073         1         0     15076         1         0     15079         1         0
     15082         1         0     15085         1         0     15088         1         0
     15092         2         0     15108         2         0     15119         1         0
     15127         1         0     15136         1         0     15139         1         0
     15142         1         0     15145         1         0     15148         1         0
     15151         1         0     15154         1         0     15156         1         0
     15158         1         0     15161         1         0     15164         1         0
     15167         1         0     15170         1         0     15173         1         0
     15176         1         0     15179         1         0     15183         1         0
     15186         1         0     15189         1         0     15192         1         0
     15195         1         0     15198         1         0     15201         1         0
     15204         1         0     15207         1         0     15210         1         0
     15213         1         0     15216         1         0     15219         1         0
     15222         1         0     15226         2         0     15242         2         0
     15253         1         0     15261         1         0     15270         1         0
     15273         1         0     15276         1         0     15279         1         0
     15282         1         0     15285         1         0     15288         1         0
     15290         1         0     15292         1         0     15295         1         0
     15298         1         0     15301         1         0     15304         1         0
     15307         1         0     15310         1         0     15313         1         0
     15317         1         0     15320         1         0     15323         1         0
     15326         1         0     15329         1         0     15332         1         0
     15335         1         0     15338         1         0     15341         1         0
     15344         1         0     15347         1         0     15350         1         0
     15353         1         0     15356         1         0     15360         2         0
     15366         2         0     15369         2         0     15380         1         0
     15388         1         0     15397         1         0     15400         1         0
     15403         1         0     15406         1         0     15409         1         0
     15412         1         0     15415         1         0     15417         1         0
     15419         1         0     15422         1         0     15425         1         0
     15428         1         0     15431         1         0     15434         1         0
     15437         1         0     15440         1         0     15444         1         0
     15447         1         0     15450         1         0     15453         1         0
     15456         1         0     15459         1         0     15462         1         0
     15465         1         0     15468         1         0     15471         1         0
     15474         1         0     15477         1         0     15480         1         0
     15483         1         0     15487         2         0     15493         2         0
     15496         2         0     15507         1         0     15515         1         0
     15524         1         0     15527         1         0     15530         1         0
     15533         1         0     15536         1         0     15539         1         0
     15542         1         0     15544         1         0     15546         1         0
     15549         1         0     15552         1         0     15555         1         0
     15558         1         0     15561         1         0     15564         1         0
     15567         1         0     15571         1         0     15574         1         0
     15577         1         0     15580         1         0     15583         1         0
     15586         1         0     15589         1         0     15592         1         0
     15595         1         0     15598         1         0     15601         1         0
     15604         1         0     15607         1         0     15610         1         0
     15614         2         0     15630         2         0     15641         1         0
     15649         1         0     15658         1         0     15661         1         0
     15664         1         0     15667         1         0     15670         1         0
     15673         1         0     15676         1         0     15678         1         0
     15680         1         0     15683         1         0     15686         1         0
     15689         1         0     15692         1         0     15695         1         0
     15698         1         0     15701         1         0     15705         1         0
     15708         1         0     15711         1         0     15714         1         0
     15717         1         0     15720         1         0     15723         1         0
     15726         1         0     15729         1         0     15732         1         0
     15735         1         0     15738         1         0     15741         1         0
     15744         1         0     15748         2         0     15764         2         0
     15775         1         0     15783         1         0     15792         1         0
     15795         1         0     15798         1         0     15801         1         0
     15804         1         0     15807         1         0     15810         1         0
     15812         1         0     15814         1         0     15817         1         0
     15820         1         0     15823         1         0     15826         1         0
     15829         1         0     15832         1         0     15835         1         0
     15839         1         0     15842         1         0     15845         1         0
     15848         1         0     15851         1         0     15854         1         0
     15857         1         0     15860         1         0     15863         1         0
     15866         1         0     15869         1         0     15872         1         0
     15875         1         0     15878         1         0     15882         2         0
     15898         2         0     15909         1         0     15917         1         0
     15926         1         0     15929         1         0     15932         1         0
     15935         1         0     15938         1         0     15941         1         0
     15944         1         0     15946         1         0     15948         1         0
     15951         1         0     15954         1         0     15957         1         0
     15960         1         0     15963         1         0     15966         1         0
     15969         1         0     15973         1         0     15976         1         0
     15979         1         0     15982         1         0     15985         1         0
     15988         1         0     15991         1         0     15994         1         0
     15997         1         0     16000         1         0     16003         1         0
     16006         1         0     16009         1         0     16012         1         0
     16016         2         0     16022         2         0     16025         2         0
     16036         1         0     16044         1         0     16053         1         0
     16056         1         0     16059         1         0     16062         1         0
     16065         1         0     16068         1         0     16071         1         0
     16073         1         0     16075         1         0     16078         1         0
     16081         1         0     16084         1         0     16087         1         0
     16090         1         0     16093         1         0     16096         1         0
     16100         1         0     16103         1         0     16106         1         0
     16109         1         0     16112         1         0     16115         1         0
     16118         1         0     16121         1         0     16124         1         0
     16127         1         0     16130         1         0     16133         1         0
     16136         1         0     16139         1         0     16143         2         0
     16159         2         0     16170         1         0     16178         1         0
     16187         1         0     16190         1         0     16193         1         0
     16196         1         0     16199         1         0     16202         1         0
     16205         1         0     16207         1         0     16209         1         0
     16212         1         0     16215         1         0     16218         1         0
     16221         1         0     16224         1         0     16227         1         0
     16230         1         0     16234         1         0     16237         1         0
     16240         1         0     16243         1         0     16246         1         0
     16249         1         0     16252         1         0     16255         1         0
     16258         1         0     16261         1         0     16264         1         0
     16267         1         0     16270         1         0     16273         1         0
     16277         2         0     16293         2         0     16304         1         0
     16312         1         0     16321         1         0     16324         1         0
     16327         1         0     16330         1         0     16333         1         0
     16336         1         0     16339         1         0     16341         1         0
     16343         1         0     16346         1         0     16349         1         0
     16352         1         0     16355         1         0     16358         1         0
     16361         1         0     16364         1         0     16368         1         0
     16371         1         0     16374         1         0     16377         1         0
     16380         1         0     16383         1         0     16386         1         0
     16389         1         0     16392         1         0     16395         1         0
     16398         1         0     16401         1         0     16404         1         0
     16407         1         0     16411         2         0     16417         2         0
     16420         2         0     16431         1         0     16439         1         0
     16448         1         0     16451         1         0     16454         1         0
     16457         1         0     16460         1         0     16463         1         0
     16466         1         0     16468         1         0     16470         1         0
     16473         1         0     16476         1         0     16479         1         0
     16482         1         0     16485         1         0     16488         1         0
     16491         1         0     16495         1         0     16498         1         0
     16501         1         0     16504         1         0     16507         1         0
     16510         1         0     16513         1         0     16516         1         0
     16519         1         0     16522         1         0     16525         1         0
     16528         1         0     16531         1         0     16534         1         0
     16538         2         0     16554         2         0     16565         1         0
     16573         1         0     16582         1         0     16585         1         0
     16588         1         0     16591         1         0     16594         1         0
     16597         1         0     16600         1         0     16602         1         0
     16604         1         0     16607         1         0     16610         1         0
     16613         1         0     16616         1         0     16619         1         0
     16622         1         0     16625         1         0     16629         1         0
     16632         1         0     16635         1         0     16638         1         0
     16641         1         0     16644         1         0     16647         1         0
     16650         1         0     16653         1         0     16656         1         0
     16659         1         0     16662         1         0     16665         1         0
     16668         1         0     16672         2         0     16688         2         0
     16699         1         0     16707         1         0     16716         1         0
     16719         1         0     16722         1         0     16725         1         0
     16728         1         0     16731         1         0     16734         1         0
     16736         1         0     16738         1         0     16741         1         0
     16744         1         0     16747         1         0     16750         1         0
     16753         1         0     16756         1         0     16759         1         0
     16763         1         0     16766         1         0     16769         1         0
     16772         1         0     16775         1         0     16778         1         0
     16781         1         0     16784         1         0     16787         1         0
     16790         1         0     16793         1         0     16796         1         0
     16799         1         0     16802         1         0     16806         2         0
     16822         2         0     16833         1         0     16841         1         0
     16850         1         0     16853         1         0     16856         1         0
     16859         1         0     16862         1         0     16865         1         0
     16868         1         0     16870         1         0     16872         1         0
     16875         1         0     16878         1         0     16881         1         0
     16884         1         0     16887         1         0     16890         1         0
     16893         1         0     16897         1         0     16900         1         0
     16903         1         0     16906         1         0     16909         1         0
     16912         1         0     16915         1         0     16918         1         0
     16921         1         0     16924         1         0     16927         1         0
     16930         1         0     16933         1         0     16936         1         0
     16940         2         0     16946         2         0     16949         2         0
     16960         1         0     16968         1         0     16977         1         0
     16980         1         0     16983         1         0     16986         1         0
     16989         1         0     16992         1         0     16995         1         0
     16997         1         0     16999         1         0     17002         1         0
     17005         1         0     17008         1         0     17011         1         0
     17014         1         0     17017         1         0     17020         1         0
     17024         1         0     17027         1         0     17030         1         0
     17033         1         0     17036         1         0     17039         1         0
     17042         1         0     17045         1         0     17048         1         0
     17051         1         0     17054         1         0     17057         1         0
     17060         1         0     17063         1         0     17067         2         0
     17083         2         0     17094         1         0     17102         1         0
     17111         1         0     17114         1         0     17117         1         0
     17120         1         0     17123         1         0     17126         1         0
     17129         1         0     17131         1         0     17133         1         0
     17136         1         0     17139         1         0     17142         1         0
     17145         1         0     17148         1         0     17151         1         0
     17154         1         0     17158         1         0     17161         1         0
     17164         1         0     17167         1         0     17170         1         0
     17173         1         0     17176         1         0     17179         1         0
     17182         1         0     17185         1         0     17188         1         0
     17191         1         0     17194         1         0     17197         1         0
     17201         2         0     17217         2         0     17228         1         0
     17236         1         0     17245         1         0     17248         1         0
     17251         1         0     17254         1         0     17257         1         0
     17260         1         0     17263         1         0     17265         1         0
     17267         1         0     17270         1         0     17273         1         0
     17276         1         0     17279         1         0     17282         1         0
     17285         1         0     17288         1         0     17292         1         0
     17295         1         0     17298         1         0     17301         1         0
     17304         1         0     17307         1         0     17310         1         0
     17313         1         0     17316         1         0     17319         1         0
     17322         1         0     17325         1         0     17328         1         0
     17331         1         0     17335         1         0     17338         1         0
     17341         1         0     17344         1         0     17347         1         0
     17350         1         0     17353         1         0     17356         1         0
     17359         1         0     17362         1         0     17365         1         0
     17368         1         0     17371         1         0     17374         1         0
     17377         1         0     17380         1         0     17383         1         0
     17386         1         0     17389         1         0     17392         1         0
     17395         1         0     17398         1         0     17401         1         0
     17404         1         0     17407         1         0     17410         1         0
     17413         1         0     17416         1         0     17419         1         0
     17422         1         0     17425         1         0     17428         1         0
     17431         1         0     17434         1         0     17437         1         0
     17440         1         0     17443         1         0     17446         1         0
     17449         1         0     17452         1         0     17455         1         0
     17458         1         0     17461         1         0     17464         1         0
     17467         1         0     17470         1         0     17473         1         0
     17476         1         0     17479         1         0     17482         1         0
     17485         1         0     17488         1         0     17491         1         0
     17494         1         0     17497         1         0     17500         1         0
     17503         1         0     17506         1         0     17509         1         0
     17512         1         0     17515         1         0     17518         1         0
     17521         1         0     17524         1         0     17527         1         0
     17530         1         0     17533         1         0     17536         1         0
     17539         1         0     17542         1         0     17545         1         0
     17548         1         0     17551         1         0     17554         1         0
     17557         1         0     17560         1         0     17563         1         0
     17566         1         0     17569         1         0     17572         1         0
     17575         1         0     17578         1         0     17581         1         0
     17584         1         0     17587         1         0     17590         1         0
     17593         1         0     17596         1         0     17599         1         0
     17602         1         0     17605         1         0     17608         1         0
     17611         1         0     17614         1         0     17617         1         0
     17620         1         0     17623         1         0     17626         1         0
     17629         1         0     17632         1         0     17635         1         0
     17638         1         0     17641         1         0     17644         1         0
     17647         1         0     17650         1         0     17653         1         0
     17656         1         0     17659         1         0     17662         1         0
     17665         1         0     17668         1         0     17671         1         0
     17674         1         0     17677         1         0     17680         1         0
     17683         1         0     17686         1         0     17689         1         0
     17692         1         0     17695         1         0     17698         1         0
     17701         1         0     17704         1         0     17707         1         0
     17710         1         0     17713         1         0     17716         1         0
     17719         1         0     17722         1         0     17725         1         0
     17728         1         0     17731         1         0     17734         1         0
     17737         1         0     17740         1         0     17743         1         0
     17746         1         0     17749         1         0     17752         1         0
     17755         1         0     17758         1         0     17761         1         0
     17764         1         0     17767         1         0     17770         1         0
     17773         1         0     17776         1         0     17779         1         0
     17782         1         0     17785         1         0     17788         1         0
     17791         1         0     17794         1         0     17797         1         0
     17800         1         0     17803         1         0     17806         1         0
     17809         1         0     17812         1         0     17815         1         0
     17818         1         0     17821         1         0     17824         1         0
     17827         1         0     17830         1         0     17833         1         0
     17836         1         0     17839         1         0     17842         1         0
     17845         1         0     17848         1         0     17851         1         0
     17854         1         0     17857         1         0     17860         1         0
     17863         1         0     17866         1         0     17869         1         0
     17872         1         0     17875         1         0     17878         1         0
     17881         1         0     17884         1         0     17887         1         0
     17890         1         0     17893         1         0     17896         1         0
     17899         1         0     17902         1         0     17905         1         0
     17908         1         0     17911         1         0     17914         1         0
     17917         1         0     17920         1         0     17923         1         0
     17926         1         0     17929         1         0     17932         1         0
     17935         1         0     17938         1         0     17941         1         0
     17944         1         0     17947         1         0     17950         1         0
     17953         1         0     17956         1         0     17959         1         0
     17962         1         0     17965         1         0     17968         1         0
     17971         1         0     17974         1         0     17977         1         0
     17980         1         0     17983         1         0     17986         1         0
     17989         1         0     17992         1         0     17995         1         0
     17998         1         0     18001         1         0     18004         1         0
     18007         1         0     18010         1         0     18013         1         0
     18016         1         0     18019         1         0     18022         1         0
     18025         1         0     18028         1         0     18031         1         0
     18034         1         0     18037         1         0     18040         1         0
     18043         1         0     18046         1         0     18049         1         0
     18052         1         0     18055         1         0     18058         1         0
     18061         1         0     18064         1         0     18067         1         0
     18070         1         0     18073         1         0     18076         1         0
     18079         1         0     18082         1         0     18085         1         0
     18088         1         0     18091         1         0     18094         1         0
     18097         1         0     18100         1         0     18103         1         0
     18106         1         0     18109         1         0     18112         1         0
     18115         1         0     18118         1         0     18121         1         0
     18124         1         0     18127         1         0     18130         1         0
     18133         1         0     18136         1         0     18139         1         0
     18142         1         0     18145         1         0     18148         1         0
     18151         1         0     18154         1         0     18157         1         0
     18160         1         0     18163         1         0     18166         1         0
     18169         1         0     18172         1         0     18175         1         0
     18178         1         0     18181         1         0     18184         1         0
     18187         1         0     18190         1         0     18193         1         0
     18196         1         0     18199         1         0     18202         1         0
     18205         1         0     18208         1         0     18211         1         0
     18214         1         0     18217         1         0     18220         1         0
     18223         1         0     18226         1         0     18229         1         0
     18232         1         0     18235         1         0     18238         1         0
     18241         1         0     18244         1         0     18247         1         0
     18250         1         0     18253         1         0     18256         1         0
     18259         1         0     18262         1         0     18265         1         0
     18268         1         0     18271         1         0     18274         1         0
     18277         1         0     18280         1         0     18283         1         0
     18286         1         0     18289         1         0     18292         1         0
     18295         1         0     18298         1         0     18301         1         0
     18304         1         0     18307         1         0     18310         1         0
     18313         1         0     18316         1         0     18319         1         0
     18322         1         0     18325         1         0     18328         1         0
     18331         1         0     18334         1         0     18337         1         0
     18340         1         0     18343         1         0     18346         1         0
     18349         1         0     18352         1         0     18355         1         0
     18358         1         0     18361         1         0     18364         1         0
     18367         1         0     18370         1         0     18373         1         0
     18376         1         0     18379         1         0     18382         1         0
     18385         1         0     18388         1         0     18391         1         0
     18394         1         0     18397         1         0     18400         1         0
     18403         1         0     18406         1         0     18409         1         0
     18412         1         0     18415         1         0     18418         1         0
     18421         1         0     18424         1         0     18427         1         0
     18430         1         0     18433         1         0     18436         1         0
     18439         1         0     18442         1         0     18445         1         0
     18448         1         0     18451         1         0     18454         1         0
     18457         1         0     18460         1         0     18463         1         0
     18466         1         0     18469         1         0     18472         1         0
     18475         1         0     18478         1         0     18481         1         0
     18484         1         0     18487         1         0     18490         1         0
     18493         1         0     18496         1         0     18499         1         0
     18502         1         0     18505         1         0     18508         1         0
     18511         1         0     18514         1         0     18517         1         0
     18520         1         0     18523         1         0     18526         1         0
     18529         1         0     18532         1         0     18535         1         0
     18538         1         0     18541         1         0     18544         1         0
     18547         1         0     18550         1         0     18553         1         0
     18556         1         0     18559         1         0     18562         1         0
     18565         1         0     18568         1         0     18571         1         0
     18574         1         0     18577         1         0     18580         1         0
     18583         1         0     18586         1         0     18589         1         0
     18592         1         0     18595         1         0     18598         1         0
     18601         1         0     18604         1         0     18607         1         0
     18610         1         0     18613         1         0     18616         1         0
     18619         1         0     18622         1         0     18625         1         0
     18628         1         0     18631         1         0     18634         1         0
     18637         1         0     18640         1         0     18643         1         0
     18646         1         0     18649         1         0     18652         1         0
     18655         1         0     18658         1         0     18661         1         0
     18664         1         0     18667         1         0     18670         1         0
     18673         1         0     18676         1         0     18679         1         0
     18682         1         0     18685         1         0     18688         1         0
     18691         1         0     18694         1         0     18697         1         0
     18700         1         0     18703         1         0     18706         1         0
     18709         1         0     18712         1         0     18715         1         0
     18718         1         0     18721         1         0     18724         1         0
     18727         1         0     18730         1         0     18733         1         0
     18736         1         0     18739         1         0     18742         1         0
     18745         1         0     18748         1         0     18751         1         0
     18754         1         0     18757         1         0     18760         1         0
     18763         1         0     18766         1         0     18769         1         0
     18772         1         0     18775         1         0     18778         1         0
     18781         1         0     18784         1         0     18787         1         0
     18790         1         0     18793         1         0     18796         1         0
     18799         1         0     18802         1         0     18805         1         0
     18808         1         0     18811         1         0     18814         1         0
     18817         1         0     18820         1         0     18823         1         0
     18826         1         0     18829         1         0     18832         1         0
     18835         1         0     18838         1         0     18841         1         0
     18844         1         0     18847         1         0     18850         1         0
     18853         1         0     18856         1         0     18859         1         0
     18862         1         0     18865         1         0     18868         1         0
     18871         1         0     18874         1         0     18877         1         0
     18880         1         0     18883         1         0     18886         1         0
     18889         1         0     18892         1         0     18895         1         0
     18898         1         0     18901         1         0     18904         1         0
     18907         1         0     18910         1         0     18913         1         0
     18916         1         0     18919         1         0     18922         1         0
     18925         1         0     18928         1         0     18931         1         0
     18934         1         0     18937         1         0     18940         1         0
     18943         1         0     18946         1         0     18949         1         0
     18952         1         0     18955         1         0     18958         1         0
     18961         1         0     18964         1         0     18967         1         0
     18970         1         0     18973         1         0     18976         1         0
     18979         1         0     18982         1         0     18985         1         0
     18988         1         0     18991         1         0     18994         1         0
     18997         1         0     19000         1         0     19003         1         0
     19006         1         0     19009         1         0     19012         1         0
     19015         1         0     19018         1         0     19021         1         0
     19024         1         0     19027         1         0     19030         1         0
     19033         1         0     19036         1         0     19039         1         0
     19042         1         0     19045         1         0     19048         1         0
     19051         1         0     19054         1         0     19057         1         0
     19060         1         0     19063         1         0     19066         1         0
     19069         1         0     19072         1         0     19075         1         0
     19078         1         0     19081         1         0     19084         1         0
     19087         1         0     19090         1         0     19093         1         0
     19096         1         0     19099         1         0     19102         1         0
     19105         1         0     19108         1         0     19111         1         0
     19114         1         0     19117         1         0     19120         1         0
     19123         1         0     19126         1         0     19129         1         0
     19132         1         0     19135         1         0     19138         1         0
     19141         1         0     19144         1         0     19147         1         0
     19150         1         0     19153         1         0     19156         1         0
     19159         1         0     19162         1         0     19165         1         0
     19168         1         0     19171         1         0     19174         1         0
     19177         1         0     19180         1         0     19183         1         0
     19186         1         0     19189         1         0     19192         1         0
     19195         1         0     19198         1         0     19201         1         0
     19204         1         0     19207         1         0     19210         1         0
     19213         1         0     19216         1         0     19219         1         0
     19222         1         0     19225         1         0     19228         1         0
     19231         1         0     19234         1         0     19237         1         0
     19240         1         0     19243         1         0     19246         1         0
     19249         1         0     19252         1         0     19255         1         0
     19258         1         0     19261         1         0     19264         1         0
     19267         1         0     19270         1         0     19273         1         0
     19276         1         0     19279         1         0     19282         1         0
     19285         1         0     19288         1         0     19291         1         0
     19294         1         0     19297         1         0     19300         1         0
     19303         1         0     19306         1         0     19309         1         0
     19312         1         0     19315         1         0     19318         1         0
     19321         1         0     19324         1         0     19327         1         0
     19330         1         0     19333         1         0     19336         1         0
     19339         1         0     19342         1         0     19345         1         0
     19348         1         0     19351         1         0     19354         1         0
     19357         1         0     19360         1         0     19363         1         0
     19366         1         0     19369         1         0     19372         1         0
     19375         1         0     19378         1         0     19381         1         0
     19384         1         0     19387         1         0     19390         1         0
     19393         1         0     19396         1         0     19399         1         0
     19402         1         0     19405         1         0     19408         1         0
     19411         1         0     19414         1         0     19417         1         0
     19420         1         0     19423         1         0     19426         1         0
     19429         1         0     19432         1         0     19435         1         0
     19438         1         0     19441         1         0     19444         1         0
     19447         1         0     19450         1         0     19453         1         0
     19456         1         0     19459         1         0     19462         1         0
     19465         1         0     19468         1         0     19471         1         0
     19474         1         0     19477         1         0     19480         1         0
     19483         1         0     19486         1         0     19489         1         0
     19492         1         0     19495         1         0     19498         1         0
     19501         1         0     19504         1         0     19507         1         0
     19510         1         0     19513         1         0     19516         1         0
     19519         1         0     19522         1         0     19525         1         0
     19528         1         0     19531         1         0     19534         1         0
     19537         1         0     19540         1         0     19543         1         0
     19546         1         0     19549         1         0     19552         1         0
     19555         1         0     19558         1         0     19561         1         0
     19564         1         0     19567         1         0     19570         1         0
     19573         1         0     19576         1         0     19579         1         0
     19582         1         0     19585         1         0     19588         1         0
     19591         1         0     19594         1         0     19597         1         0
     19600         1         0     19603         1         0     19606         1         0
     19609         1         0     19612         1         0     19615         1         0
     19618         1         0     19621         1         0     19624         1         0
     19627         1         0     19630         1         0     19633         1         0
     19636         1         0     19639         1         0     19642         1         0
     19645         1         0     19648         1         0     19651         1         0
     19654         1         0     19657         1         0     19660         1         0
     19663         1         0     19666         1         0     19669         1         0
     19672         1         0     19675         1         0     19678         1         0
     19681         1         0     19684         1         0     19687         1         0
     19690         1         0     19693         1         0     19696         1         0
     19699         1         0     19702         1         0     19705         1         0
     19708         1         0     19711         1         0     19714         1         0
     19717         1         0     19720         1         0     19723         1         0
     19726         1         0     19729         1         0     19732         1         0
     19735         1         0     19738         1         0     19741         1         0
     19744         1         0     19747         1         0     19750         1         0
     19753         1         0     19756         1         0     19759         1         0
     19762         1         0     19765         1         0     19768         1         0
     19771         1         0     19774         1         0     19777         1         0
     19780         1         0     19783         1         0     19786         1         0
     19789         1         0     19792         1         0     19795         1         0
     19798         1         0     19801         1         0     19804         1         0
     19807         1         0     19810         1         0     19813         1         0
     19816         1         0     19819         1         0     19822         1         0
     19825         1         0     19828         1         0     19831         1         0
     19834         1         0     19837         1         0     19840         1         0
     19843         1         0     19846         1         0     19849         1         0
     19852         1         0     19855         1         0     19858         1         0
     19861         1         0     19864         1         0     19867         1         0
     19870         1         0     19873         1         0     19876         1         0
     19879         1         0     19882         1         0     19885         1         0
     19888         1         0     19891         1         0     19894         1         0
     19897         1         0     19900         1         0     19903         1         0
     19906         1         0     19909         1         0     19912         1         0
     19915         1         0     19918         1         0     19921         1         0
     19924         1         0     19927         1         0     19930         1         0
     19933         1         0     19936         1         0     19939         1         0
     19942         1         0     19945         1         0     19948         1         0
     19951         1         0     19954         1         0     19957         1         0
     19960         1         0     19963         1         0     19966         1         0
     19969         1         0     19972         1         0     19975         1         0
     19978         1         0     19981         1         0     19984         1         0
     19987         1         0     19990         1         0     19993         1         0
     19996         1         0     19999         1         0     20002         1         0
     20005         1         0     20008         1         0     20011         1         0
     20014         1         0     20017         1         0     20020         1         0
     20023         1         0     20026         1         0     20029         1         0
     20032         1         0     20035         1         0     20038         1         0
     20041         1         0     20044         1         0     20047         1         0
     20050         1         0     20053         1         0     20056         1         0
     20059         1         0     20062         1         0     20065         1         0
     20068         1         0     20071         1         0     20074         1         0
     20077         1         0     20080         1         0     20083         1         0
     20086         1         0     20089         1         0     20092         1         0
     20095         1         0     20098         1         0     20101         1         0
     20104         1         0     20107         1         0     20110         1         0
     20113         1         0     20116         1         0     20119         1         0
     20122         1         0     20125         1         0     20128         1         0
     20131         1         0     20134         1         0     20137         1         0
     20140         1         0     20143         1         0     20146         1         0
     20149         1         0     20152         1         0     20155         1         0
     20158         1         0     20161         1         0     20164         1         0
     20167         1         0     20170         1         0     20173         1         0
     20176         1         0     20179         1         0     20182         1         0
     20185         1         0     20188         1         0     20191         1         0
     20194         1         0     20197         1         0     20200         1         0
     20203         1         0     20206         1         0     20209         1         0
     20212         1         0     20215         1         0     20218         1         0
     20221         1         0     20224         1         0     20227         1         0
     20230         1         0     20233         1         0     20236         1         0
     20239         1         0     20242         1         0     20245         1         0
     20248         1         0     20251         1         0     20254         1         0
     20257         1         0     20260         1         0     20263         1         0
     20266         1         0     20269         1         0     20272         1         0
     20275         1         0     20278         1         0     20281         1         0
     20284         1         0     20287         1         0     20290         1         0
     20293         1         0     20296         1         0     20299         1         0
     20302         1         0     20305         1         0     20308         1         0
     20311         1         0     20314         1         0     20317         1         0
     20320         1         0     20323         1         0     20326         1         0
     20329         1         0     20332         1         0     20335         1         0
     20338         1         0     20341         1         0     20344         1         0
     20347         1         0     20350         1         0     20353         1         0
     20356         1         0     20359         1         0     20362         1         0
     20365         1         0     20368         1         0     20371         1         0
     20374         1         0     20377         1         0     20380         1         0
     20383         1         0     20386         1         0     20389         1         0
     20392         1         0     20395         1         0     20398         1         0
     20401         1         0     20404         1         0     20407         1         0
     20410         1         0     20413         1         0     20416         1         0
     20419         1         0     20422         1         0     20425         1         0
     20428         1         0     20431         1         0     20434         1         0
     20437         1         0     20440         1         0     20443         1         0
     20446         1         0     20449         1         0     20452         1         0
     20455         1         0     20458         1         0     20461         1         0
     20464         1         0     20467         1         0     20470         1         0
     20473         1         0     20476         1         0     20479         1         0
     20482         1         0     20485         1         0     20488         1         0
     20491         1         0     20494         1         0     20497         1         0
     20500         1         0     20503         1         0     20506         1         0
     20509         1         0     20512         1         0     20515         1         0
     20518         1         0     20521         1         0     20524         1         0
     20527         1         0     20530         1         0     20533         1         0
     20536         1         0     20539         1         0     20542         1         0
     20545         1         0     20548         1         0     20551         1         0
     20554         1         0     20557         1         0     20560         1         0
     20563         1         0     20566         1         0     20569         1         0
     20572         1         0     20575         1         0     20578         1         0
     20581         1         0     20584         1         0     20587         1         0
     20590         1         0     20593         1         0     20596         1         0
     20599         1         0     20602         1         0     20605         1         0
     20608         1         0     20611         1         0     20614         1         0
     20617         1         0     20620         1         0     20623         1         0
     20626         1         0     20629         1         0     20632         1         0
     20635         1         0     20638         1         0     20641         1         0
     20644         1         0     20647         1         0     20650         1         0
     20653         1         0     20656         1         0     20659         1         0
     20662         1         0     20665         1         0     20668         1         0
     20671         1         0     20674         1         0     20677         1         0
     20680         1         0     20683         1         0     20686         1         0
     20689         1         0     20692         1         0     20695         1         0
     20698         1         0     20701         1         0     20704         1         0
     20707         1         0     20710         1         0     20713         1         0
     20716         1         0     20719         1         0     20722         1         0
     20725         1         0     20728         1         0     20731         1         0
     20734         1         0     20737         1         0     20740         1         0
     20743         1         0     20746         1         0     20749         1         0
     20752         1         0     20755         1         0     20758         1         0
     20761         1         0     20764         1         0     20767         1         0
     20770         1         0     20773         1         0     20776         1         0
     20779         1         0     20782         1         0     20785         1         0
     20788         1         0     20791         1         0     20794         1         0
     20797         1         0     20800         1         0     20803         1         0
     20806         1         0     20809         1         0     20812         1         0
     20815         1         0     20818         1         0     20821         1         0
     20824         1         0     20827         1         0     20830         1         0
     20833         1         0     20836         1         0     20839         1         0
     20842         1         0     20845         1         0     20848         1         0
     20851         1         0     20854         1         0     20857         1         0
     20860         1         0     20863         1         0     20866         1         0
     20869         1         0     20872         1         0     20875         1         0
     20878         1         0     20881         1         0     20884         1         0
     20887         1         0     20890         1         0     20893         1         0
     20896         1         0     20899         1         0     20902         1         0
     20905         1         0     20908         1         0     20911         1         0
     20914         1         0     20917         1         0     20920         1         0
     20923         1         0     20926         1         0     20929         1         0
     20932         1         0     20935         1         0     20938         1         0
     20941         1         0     20944         1         0     20947         1         0
     20950         1         0     20953         1         0     20956         1         0
     20959         1         0     20962         1         0     20965         1         0
     20968         1         0     20971         1         0     20974         1         0
     20977         1         0     20980         1         0     20983         1         0
     20986         1         0     20989         1         0     20992         1         0
     20995         1         0     20998         1         0     21001         1         0
     21004         1         0     21007         1         0     21010         1         0
     21013         1         0     21016         1         0     21019         1         0
     21022         1         0     21025         1         0     21028         1         0
     21031         1         0     21034         1         0     21037         1         0
     21040         1         0     21043         1         0     21046         1         0
     21049         1         0     21052         1         0     21055         1         0
     21058         1         0     21061         1         0     21064         1         0
     21067         1         0     21070         1         0     21073         1         0
     21076         1         0     21079         1         0     21082         1         0
     21085         1         0     21088         1         0     21091         1         0
     21094         1         0     21097         1         0     21100         1         0
     21103         1         0     21106         1         0     21109         1         0
     21112         1         0     21115         1         0     21118         1         0
     21121         1         0     21124         1         0     21127         1         0
     21130         1         0     21133         1         0     21136         1         0
     21139         1         0     21142         1         0     21145         1         0
     21148         1         0     21151         1         0     21154         1         0
     21157         1         0     21160         1         0     21163         1         0
     21166         1         0     21169         1         0     21172         1         0
     21175         1         0     21178         1         0     21181         1         0
     21184         1         0     21187         1         0     21190         1         0
     21193         1         0     21196         1         0     21199         1         0
     21202         1         0     21205         1         0     21208         1         0
     21211         1         0     21214         1         0     21217         1         0
     21220         1         0     21223         1         0     21226         1         0
     21229         1         0     21232         1         0     21235         1         0
     21238         1         0     21241         1         0     21244         1         0
     21247         1         0     21250         1         0     21253         1         0
     21256         1         0     21259         1         0     21262         1         0
     21265         1         0     21268         1         0     21271         1         0
     21274         1         0     21277         1         0     21280         1         0
     21283         1         0     21286         1         0     21289         1         0
     21292         1         0     21295         1         0     21298         1         0
     21301         1         0     21304         1         0     21307         1         0
     21310         1         0     21313         1         0     21316         1         0
     21319         1         0     21322         1         0     21325         1         0
     21328         1         0     21331         1         0     21334         1         0
     21337         1         0     21340         1         0     21343         1         0
     21346         1         0     21349         1         0     21352         1         0
     21355         1         0     21358         1         0     21361         1         0
     21364         1         0     21367         1         0     21370         1         0
     21373         1         0     21376         1         0     21379         1         0
     21382         1         0     21385         1         0     21388         1         0
     21391         1         0     21394         1         0     21397         1         0
     21400         1         0     21403         1         0     21406         1         0
     21409         1         0     21412         1         0     21415         1         0
     21418         1         0     21421         1         0     21424         1         0
     21427         1         0     21430         1         0     21433         1         0
     21436         1         0     21439         1         0     21442         1         0
     21445         1         0     21448         1         0     21451         1         0
     21454         1         0     21457         1         0     21460         1         0
     21463         1         0     21466         1         0     21469         1         0
     21472         1         0     21475         1         0     21478         1         0
     21481         1         0     21484         1         0     21487         1         0
     21490         1         0     21493         1         0     21496         1         0
     21499         1         0     21502         1         0     21505         1         0
     21508         1         0     21511         1         0     21514         1         0
     21517         1         0     21520         1         0     21523         1         0
     21526         1         0     21529         1         0     21532         1         0
     21535         1         0     21538         1         0     21541         1         0
     21544         1         0     21547         1         0     21550         1         0
     21553         1         0     21556         1         0     21559         1         0
     21562         1         0     21565         1         0     21568         1         0
     21571         1         0     21574         1         0     21577         1         0
     21580         1         0     21583         1         0     21586         1         0
     21589         1         0     21592         1         0     21595         1         0
     21598         1         0     21601         1         0     21604         1         0
     21607         1         0     21610         1         0     21613         1         0
     21616         1         0     21619         1         0     21622         1         0
     21625         1         0     21628         1         0     21631         1         0
     21634         1         0     21637         1         0     21640         1         0
     21643         1         0     21646         1         0     21649         1         0
     21652         1         0     21655         1         0     21658         1         0
     21661         1         0     21664         1         0     21667         1         0
     21670         1         0     21673         1         0     21676         1         0
     21679         1         0     21682         1         0     21685         1         0
     21688         1         0     21691         1         0     21694         1         0
     21697         1         0     21700         1         0     21703         1         0
     21706         1         0     21709         1         0     21712         1         0
     21715         1         0     21718         1         0     21721         1         0
     21724         1         0     21727         1         0     21730         1         0
     21733         1         0     21736         1         0     21739         1         0
     21742         1         0     21745         1         0     21748         1         0
     21751         1         0     21754         1         0     21757         1         0
     21760         1         0     21763         1         0     21766         1         0
     21769         1         0     21772         1         0     21775         1         0
     21778         1         0     21781         1         0     21784         1         0
     21787         1         0     21790         1         0     21793         1         0
     21796         1         0     21799         1         0     21802         1         0
     21805         1         0     21808         1         0     21811         1         0
     21814         1         0     21817         1         0     21820         1         0
     21823         1         0     21826         1         0     21829         1         0
     21832         1         0     21835         1         0     21838         1         0
     21841         1         0     21844         1         0     21847         1         0
     21850         1         0     21853         1         0     21856         1         0
     21859         1         0     21862         1         0     21865         1         0
     21868         1         0     21871         1         0     21874         1         0
     21877         1         0     21880         1         0     21883         1         0
     21886         1         0     21889         1         0     21892         1         0
     21895         1         0     21898         1         0     21901         1         0
     21904         1         0     21907         1         0     21910         1         0
     21913         1         0     21916         1         0     21919         1         0
     21922         1         0     21925         1         0     21928         1         0
     21931         1         0     21934         1         0     21937         1         0
     21940         1         0     21943         1         0     21946         1         0
     21949         1         0     21952         1         0     21955         1         0
     21958         1         0     21961         1         0     21964         1         0
     21967         1         0     21970         1         0     21973         1         0
     21976         1         0     21979         1         0     21982         1         0
     21985         1         0     21988         1         0     21991         1         0
     21994         1         0     21997         1         0     22000         1         0
     22003         1         0     22006         1         0     22009         1         0
     22012         1         0     22015         1         0     22018         1         0
     22021         1         0     22024         1         0     22027         1         0
     22030         1         0     22033         1         0     22036         1         0
     22039         1         0     22042         1         0     22045         1         0
     22048         1         0     22051         1         0     22054         1         0
     22057         1         0     22060         1         0     22063         1         0
     22066         1         0     22069         1         0     22072         1         0
     22075         1         0     22078         1         0     22081         1         0
     22084         1         0     22087         1         0     22090         1         0
     22093         1         0     22096         1         0     22099         1         0
     22102         1         0     22105         1         0     22108         1         0
     22111         1         0     22114         1         0     22117         1         0
     22120         1         0     22123         1         0     22126         1         0
     22129         1         0     22132         1         0     22135         1         0
     22138         1         0     22141         1         0     22144         1         0
     22147         1         0     22150         1         0     22153         1         0
     22156         1         0     22159         1         0     22162         1         0
     22165         1         0     22168         1         0     22171         1         0
     22174         1         0     22177         1         0     22180         1         0
     22183         1         0     22186         1         0     22189         1         0
     22192         1         0     22195         1         0     22198         1         0
     22201         1         0     22204         1         0     22207         1         0
     22210         1         0     22213         1         0     22216         1         0
     22219         1         0     22222         1         0     22225         1         0
     22228         1         0     22231         1         0     22234         1         0
     22237         1         0     22240         1         0     22243         1         0
     22246         1         0     22249         1         0     22252         1         0
     22255         1         0     22258         1         0     22261         1         0
     22264         1         0     22267         1         0     22270         1         0
     22273         1         0     22276         1         0     22279         1         0
     22282         1         0     22285         1         0     22288         1         0
     22291         1         0     22294         1         0     22297         1         0
     22300         1         0     22303         1         0     22306         1         0
     22309         1         0     22312         1         0     22315         1         0
     22318         1         0     22321         1         0     22324         1         0
     22327         1         0     22330         1         0     22333         1         0
     22336         1         0     22339         1         0     22342         1         0
     22345         1         0     22348         1         0     22351         1         0
     22354         1         0     22357         1         0     22360         1         0
     22363         1         0     22366         1         0     22369         1         0
     22372         1         0     22375         1         0     22378         1         0
     22381         1         0     22384         1         0     22387         1         0
     22390         1         0     22393         1         0     22396         1         0
     22399         1         0     22402         1         0     22405         1         0
     22408         1         0     22411         1         0     22414         1         0
     22417         1         0     22420         1         0     22423         1         0
     22426         1         0     22429         1         0     22432         1         0
     22435         1         0     22438         1         0     22441         1         0
     22444         1         0     22447         1         0     22450         1         0
     22453         1         0     22456         1         0     22459         1         0
     22462         1         0     22465         1         0     22468         1         0
     22471         1         0     22474         1         0     22477         1         0
     22480         1         0     22483         1         0     22486         1         0
     22489         1         0     22492         1         0     22495         1         0
     22498         1         0     22501         1         0     22504         1         0
     22507         1         0     22510         1         0     22513         1         0
     22516         1         0     22519         1         0     22522         1         0
     22525         1         0     22528         1         0     22531         1         0
     22534         1         0     22537         1         0     22540         1         0
     22543         1         0     22546         1         0     22549         1         0
     22552         1         0     22555         1         0     22558         1         0
     22561         1         0     22564         1         0     22567         1         0
     22570         1         0     22573         1         0     22576         1         0
     22579         1         0     22582         1         0     22585         1         0
     22588         1         0     22591         1         0     22594         1         0
     22597         1         0     22600         1         0     22603         1         0
     22606         1         0     22609         1         0     22612         1         0
     22615         1         0     22618         1         0     22621         1         0
     22624         1         0     22627         1         0     22630         1         0
     22633         1         0     22636         1         0     22639         1         0
     22642         1         0     22645         1         0     22648         1         0
     22651         1         0     22654         1         0     22657         1         0
     22660         1         0     22663         1         0     22666         1         0
     22669         1         0     22672         1         0     22675         1         0
     22678         1         0     22681         1         0     22684         1         0
     22687         1         0     22690         1         0     22693         1         0
     22696         1         0     22699         1         0     22702         1         0
     22705         1         0     22708         1         0     22711         1         0
     22714         1         0     22717         1         0     22720         1         0
     22723         1         0     22726         1         0     22729         1         0
     22732         1         0     22735         1         0     22738         1         0
     22741         1         0     22744         1         0     22747         1         0
     22750         1         0     22753         1         0     22756         1         0
     22759         1         0     22762         1         0     22765         1         0
     22768         1         0     22771         1         0     22774         1         0
     22777         1         0     22780         1         0     22783         1         0
     22786         1         0     22789         1         0     22792         1         0
     22795         1         0     22798         1         0     22801         1         0
     22804         1         0     22807         1         0     22810         1         0
     22813         1         0     22816         1         0     22819         1         0
     22822         1         0     22825         1         0     22828         1         0
     22831         1         0     22834         1         0     22837         1         0
     22840         1         0     22843         1         0     22846         1         0
     22849         1         0     22852         1         0     22855         1         0
     22858         1         0     22861         1         0     22864         1         0
     22867         1         0     22870         1         0     22873         1         0
     22876         1         0     22879         1         0     22882         1         0
     22885         1         0     22888         1         0     22891         1         0
     22894         1         0     22897         1         0     22900         1         0
     22903         1         0     22906         1         0     22909         1         0
     22912         1         0     22915         1         0     22918         1         0
     22921         1         0     22924         1         0     22927         1         0
     22930         1         0     22933         1         0     22936         1         0
     22939         1         0     22942         1         0     22945         1         0
     22948         1         0     22951         1         0     22954         1         0
     22957         1         0     22960         1         0     22963         1         0
     22966         1         0     22969         1         0     22972         1         0
     22975         1         0     22978         1         0     22981         1         0
     22984         1         0     22987         1         0     22990         1         0
     22993         1         0     22996         1         0     22999         1         0
     23002         1         0     23005         1         0     23008         1         0
     23011         1         0     23014         1         0     23017         1         0
     23020         1         0     23023         1         0     23026         1         0
     23029         1         0     23032         1         0     23035         1         0
     23038         1         0     23041         1         0     23044         1         0
     23047         1         0     23050         1         0     23053         1         0
     23056         1         0     23059         1         0     23062         1         0
     23065         1         0     23068         1         0     23071         1         0
     23074         1         0     23077         1         0     23080         1         0
     23083         1         0     23086         1         0     23089         1         0
     23092         1         0     23095         1         0     23098         1         0
     23101         1         0     23104         1         0     23107         1         0
     23110         1         0     23113         1         0     23116         1         0
     23119         1         0     23122         1         0     23125         1         0
     23128         1         0     23131         1         0     23134         1         0
     23137         1         0     23140         1         0     23143         1         0
     23146         1         0     23149         1         0     23152         1         0
     23155         1         0     23158         1         0     23161         1         0
     23164         1         0     23167         1         0     23170         1         0
     23173         1         0     23176         1         0     23179         1         0
     23182         1         0     23185         1         0     23188         1         0
     23191         1         0     23194         1         0     23197         1         0
     23200         1         0     23203         1         0     23206         1         0
     23209         1         0     23212         1         0     23215         1         0
     23218         1         0     23221         1         0     23224         1         0
     23227         1         0     23230         1         0     23233         1         0
     23236         1         0     23239         1         0     23242         1         0
     23245         1         0     23248         1         0     23251         1         0
     23254         1         0     23257         1         0     23260         1         0
     23263         1         0     23266         1         0     23269         1         0
     23272         1         0     23275         1         0     23278         1         0
     23281         1         0     23284         1         0     23287         1         0
     23290         1         0     23293         1         0     23296         1         0
     23299         1         0     23302         1         0     23305         1         0
     23308         1         0     23311         1         0     23314         1         0
     23317         1         0     23320         1         0     23323         1         0
     23326         1         0     23329         1         0     23332         1         0
     23335         1         0     23338         1         0     23341         1         0
     23344         1         0     23347         1         0     23350         1         0
     23353         1         0     23356         1         0     23359         1         0
     23362         1         0     23365         1         0     23368         1         0
     23371         1         0     23374         1         0     23377         1         0
     23380         1         0     23383         1         0     23386         1         0
     23389         1         0     23392         1         0     23395         1         0
     23398         1         0     23401         1         0     23404         1         0
     23407         1         0     23410         1         0     23413         1         0
     23416         1         0     23419         1         0     23422         1         0
     23425         1         0     23428         1         0     23431         1         0
     23434         1         0     23437         1         0     23440         1         0
     23443         1         0     23446         1         0     23449         1         0
     23452         1         0     23455         1         0     23458         1         0
     23461         1         0     23464         1         0     23467         1         0
     23470         1         0     23473         1         0     23476         1         0
     23479         1         0     23482         1         0     23485         1         0
     23488         1         0     23491         1         0     23494         1         0
     23497         1         0     23500         1         0     23503         1         0
     23506         1         0     23509         1         0     23512         1         0
     23515         1         0     23518         1         0     23521         1         0
     23524         1         0     23527         1         0     23530         1         0
     23533         1         0     23536         1         0     23539         1         0
     23542         1         0     23545         1         0     23548         1         0
     23551         1         0     23554         1         0     23557         1         0
     23560         1         0     23563         1         0     23566         1         0
     23569         1         0     23572         1         0     23575         1         0
     23578         1         0     23581         1         0     23584         1         0
     23587         1         0     23590         1         0     23593         1         0
     23596         1         0     23599         1         0     23602         1         0
     23605         1         0     23608         1         0     23611         1         0
     23614         1         0     23617         1         0     23620         1         0
     23623         1         0     23626         1         0     23629         1         0
     23632         1         0     23635         1         0     23638         1         0
     23641         1         0     23644         1         0     23647         1         0
     23650         1         0     23653         1         0     23656         1         0
     23659         1         0     23662         1         0     23665         1         0
     23668         1         0     23671         1         0     23674         1         0
     23677         1         0     23680         1         0     23683         1         0
     23686         1         0     23689         1         0     23692         1         0
     23695         1         0     23698         1         0     23701         1         0
     23704         1         0     23707         1         0     23710         1         0
     23713         1         0     23716         1         0     23719         1         0
     23722         1         0     23725         1         0     23728         1         0
     23731         1         0     23734         1         0     23737         1         0
     23740         1         0     23743         1         0     23746         1         0
     23749         1         0     23752         1         0     23755         1         0
     23758         1         0     23761         1         0     23764         1         0
     23767         1         0     23770         1         0     23773         1         0
     23776         1         0     23779         1         0     23782         1         0
     23785         1         0     23788         1         0     23791         1         0
     23794         1         0     23797         1         0     23800         1         0
     23803         1         0     23806         1         0     23809         1         0
     23812         1         0     23815         1         0     23818         1         0
     23821         1         0     23824         1         0     23827         1         0
     23830         1         0     23833         1         0     23836         1         0
     23839         1         0     23842         1         0     23845         1         0
     23848         1         0     23851         1         0     23854         1         0
     23857         1         0     23860         1         0     23863         1         0
     23866         1         0     23869         1         0     23872         1         0
     23875         1         0     23878         1         0     23881         1         0
     23884         1         0     23887         1         0     23890         1         0
     23893         1         0     23896         1         0     23899         1         0
     23902         1         0     23905         1         0     23908         1         0
     23911         1         0     23914         1         0     23917         1         0
     23920         1         0     23923         1         0     23926         1         0
     23929         1         0     23932         1         0     23935         1         0
     23938         1         0     23941         1         0     23944         1         0
     23947         1         0     23950         1         0     23953         1         0
     23956         1         0     23959         1         0     23962         1         0
     23965         1         0     23968         1         0     23971         1         0
     23974         1         0     23977         1         0     23980         1         0
     23983         1         0     23986         1         0     23989         1         0
     23992         1         0     23995         1         0     23998         1         0
     24001         1         0     24004         1         0     24007         1         0
     24010         1         0     24013         1         0     24016         1         0
     24019         1         0     24022         1         0     24025         1         0
     24028         1         0     24031         1         0     24034         1         0
     24037         1         0     24040         1         0     24043         1         0
     24046         1         0     24049         1         0     24052         1         0
     24055         1         0     24058         1         0     24061         1         0
     24064         1         0     24067         1         0     24070         1         0
     24073         1         0     24076         1         0     24079         1         0
     24082         1         0     24085         1         0     24088         1         0
     24091         1         0     24094         1         0     24097         1         0
     24100         1         0     24103         1         0     24106         1         0
     24109         1         0     24112         1         0     24115         1         0
     24118         1         0     24121         1         0     24124         1         0
     24127         1         0     24130         1         0     24133         1         0
     24136         1         0     24139         1         0     24142         1         0
     24145         1         0     24148         1         0     24151         1         0
     24154         1         0     24157         1         0     24160         1         0
     24163         1         0     24166         1         0     24169         1         0
     24172         1         0     24175         1         0     24178         1         0
     24181         1         0     24184         1         0     24187         1         0
     24190         1         0     24193         1         0     24196         1         0
     24199         1         0     24202         1         0     24205         1         0
     24208         1         0     24211         1         0     24214         1         0
     24217         1         0     24220         1         0     24223         1         0
     24226         1         0     24229         1         0     24232         1         0
     24235         1         0     24238         1         0     24241         1         0
     24244         1         0     24247         1         0     24250         1         0
     24253         1         0     24256         1         0     24259         1         0
     24262         1         0     24265         1         0     24268         1         0
     24271         1         0     24274         1         0     24277         1         0
     24280         1         0     24283         1         0     24286         1         0
     24289         1         0     24292         1         0     24295         1         0
     24298         1         0     24301         1         0     24304         1         0
     24307         1         0     24310         1         0     24313         1         0
     24316         1         0     24319         1         0     24322         1         0
     24325         1         0     24328         1         0     24331         1         0
     24334         1         0     24337         1         0     24340         1         0
     24343         1         0     24346         1         0     24349         1         0
     24352         1         0     24355         1         0     24358         1         0
     24361         1         0     24364         1         0     24367         1         0
     24370         1         0     24373         1         0     24376         1         0
     24379         1         0     24382         1         0     24385         1         0
     24388         1         0     24391         1         0     24394         1         0
     24397         1         0     24400         1         0     24403         1         0
     24406         1         0     24409         1         0     24412         1         0
     24415         1         0     24418         1         0     24421         1         0
     24424         1         0     24427         1         0     24430         1         0
     24433         1         0     24436         1         0     24439         1         0
     24442         1         0     24445         1         0     24448         1         0
     24451         1         0     24454         1         0     24457         1         0
     24460         1         0     24463         1         0     24466         1         0
     24469         1         0     24472         1         0     24475         1         0
     24478         1         0     24481         1         0     24484         1         0
     24487         1         0     24490         1         0     24493         1         0
     24496         1         0     24499         1         0     24502         1         0
     24505         1         0     24508         1         0     24511         1         0
     24514         1         0     24517         1         0     24520         1         0
     24523         1         0     24526         1         0     24529         1         0
     24532         1         0     24535         1         0     24538         1         0
     24541         1         0     24544         1         0     24547         1         0
     24550         1         0     24553         1         0     24556         1         0
     24559         1         0     24562         1         0     24565         1         0
     24568         1         0     24571         1         0     24574         1         0
     24577         1         0     24580         1         0     24583         1         0
     24586         1         0     24589         1         0     24592         1         0
     24595         1         0     24598         1         0     24601         1         0
     24604         1         0     24607         1         0     24610         1         0
     24613         1         0     24616         1         0     24619         1         0
     24622         1         0     24625         1         0     24628         1         0
     24631         1         0     24634         1         0     24637         1         0
     24640         1         0     24643         1         0     24646         1         0
     24649         1         0     24652         1         0     24655         1         0
     24658         1         0     24661         1         0     24664         1         0
     24667         1         0     24670         1         0     24673         1         0
     24676         1         0     24679         1         0     24682         1         0
     24685         1         0     24688         1         0     24691         1         0
     24694         1         0     24697         1         0     24700         1         0
     24703         1         0     24706         1         0     24709         1         0
     24712         1         0     24715         1         0     24718         1         0
     24721         1         0     24724         1         0     24727         1         0
     24730         1         0     24733         1         0     24736         1         0
     24739         1         0     24742         1         0     24745         1         0
     24748         1         0     24751         1         0     24754         1         0
     24757         1         0     24760         1         0     24763         1         0
     24766         1         0     24769         1         0     24772         1         0
     24775         1         0     24778         1         0     24781         1         0
     24784         1         0     24787         1         0     24790         1         0
     24793         1         0     24796         1         0     24799         1         0
     24802         1         0     24805         1         0     24808         1         0
     24811         1         0     24814         1         0     24817         1         0
     24820         1         0     24823         1         0     24826         1         0
     24829         1         0     24832         1         0     24835         1         0
     24838         1         0     24841         1         0     24844         1         0
     24847         1         0     24850         1         0     24853         1         0
     24856         1         0     24859         1         0     24862         1         0
     24865         1         0     24868         1         0     24871         1         0
     24874         1         0     24877         1         0     24880         1         0
     24883         1         0     24886         1         0     24889         1         0
     24892         1         0     24895         1         0     24898         1         0
     24901         1         0     24904         1         0     24907         1         0
     24910         1         0     24913         1         0     24916         1         0
     24919         1         0     24922         1         0     24925         1         0
     24928         1         0     24931         1         0     24934         1         0
     24937         1         0     24940         1         0     24943         1         0
     24946         1         0     24949         1         0     24952         1         0
     24955         1         0     24958         1         0     24961         1         0
     24964         1         0     24967         1         0     24970         1         0
     24973         1         0     24976         1         0     24979         1         0
     24982         1         0     24985         1         0     24988         1         0
     24991         1         0     24994         1         0     24997         1         0
     25000         1         0     25003         1         0     25006         1         0
     25009         1         0     25012         1         0     25015         1         0
     25018         1         0     25021         1         0     25024         1         0
     25027         1         0     25030         1         0     25033         1         0
     25036         1         0     25039         1         0     25042         1         0
     25045         1         0     25048         1         0     25051         1         0
     25054         1         0     25057         1         0     25060         1         0
     25063         1         0     25066         1         0     25069         1         0
     25072         1         0     25075         1         0     25078         1         0
     25081         1         0     25084         1         0     25087         1         0
     25090         1         0     25093         1         0     25096         1         0
     25099         1         0     25102         1         0     25105         1         0
     25108         1         0     25111         1         0     25114         1         0
     25117         1         0     25120         1         0     25123         1         0
     25126         1         0     25129         1         0     25132         1         0
     25135         1         0     25138         1         0     25141         1         0
     25144         1         0     25147         1         0     25150         1         0
     25153         1         0     25156         1         0     25159         1         0
     25162         1         0     25165         1         0     25168         1         0
     25171         1         0     25174         1         0     25177         1         0
     25180         1         0     25183         1         0     25186         1         0
     25189         1         0     25192         1         0     25195         1         0
     25198         1         0     25201         1         0     25204         1         0
     25207         1         0     25210         1         0     25213         1         0
     25216         1         0     25219         1         0     25222         1         0
     25225         1         0     25228         1         0     25231         1         0
     25234         1         0     25237         1         0     25240         1         0
     25243         1         0     25246         1         0     25249         1         0
     25252         1         0     25255         1         0     25258         1         0
     25261         1         0     25264         1         0     25267         1         0
     25270         1         0     25273         1         0     25276         1         0
     25279         1         0     25282         1         0     25285         1         0
     25288         1         0     25291         1         0     25294         1         0
     25297         1         0     25300         1         0     25303         1         0
     25306         1         0     25309         1         0     25312         1         0
     25315         1         0     25318         1         0     25321         1         0
     25324         1         0     25327         1         0     25330         1         0
     25333         1         0     25336         1         0     25339         1         0
     25342         1         0     25345         1         0     25348         1         0
     25351         1         0     25354         1         0     25357         1         0
     25360         1         0     25363         1         0     25366         1         0
     25369         1         0     25372         1         0     25375         1         0
     25378         1         0     25381         1         0     25384         1         0
     25387         1         0     25390         1         0     25393         1         0
     25396         1         0     25399         1         0     25402         1         0
     25405         1         0     25408         1         0     25411         1         0
     25414         1         0     25417         1         0     25420         1         0
     25423         1         0     25426         1         0     25429         1         0
     25432         1         0     25435         1         0     25438         1         0
     25441         1         0     25444         1         0     25447         1         0
     25450         1         0     25453         1         0     25456         1         0
     25459         1         0     25462         1         0     25465         1         0
     25468         1         0     25471         1         0     25474         1         0
     25477         1         0     25480         1         0     25483         1         0
     25486         1         0     25489         1         0     25492         1         0
     25495         1         0     25498         1         0     25501         1         0
     25504         1         0     25507         1         0     25510         1         0
     25513         1         0     25516         1         0     25519         1         0
     25522         1         0     25525         1         0     25528         1         0
     25531         1         0     25534         1         0     25537         1         0
     25540         1         0     25543         1         0     25546         1         0
     25549         1         0     25552         1         0     25555         1         0
     25558         1         0     25561         1         0     25564         1         0
     25567         1         0     25570         1         0     25573         1         0
     25576         1         0     25579         1         0     25582         1         0
     25585         1         0     25588         1         0     25591         1         0
     25594         1         0     25597         1         0     25600         1         0
     25603         1         0     25606         1         0     25609         1         0
     25612         1         0     25615         1         0     25618         1         0
     25621         1         0     25624         1         0     25627         1         0
     25630         1         0     25633         1         0     25636         1         0
     25639         1         0     25642         1         0     25645         1         0
     25648         1         0     25651         1         0     25654         1         0
     25657         1         0     25660         1         0     25663         1         0
     25666         1         0     25669         1         0     25672         1         0
     25675         1         0     25678         1         0     25681         1         0
     25684         1         0     25687         1         0     25690         1         0
     25693         1         0     25696         1         0     25699         1         0
     25702         1         0     25705         1         0     25708         1         0
     25711         1         0     25714         1         0     25717         1         0
     25720         1         0     25723         1         0     25726         1         0
     25729         1         0     25732         1         0     25735         1         0
     25738         1         0     25741         1         0     25744         1         0
     25747         1         0     25750         1         0     25753         1         0
     25756         1         0     25759         1         0     25762         1         0
     25765         1         0     25768         1         0     25771         1         0
     25774         1         0     25777         1         0     25780         1         0
     25783         1         0     25786         1         0     25789         1         0
     25792         1         0     25795         1         0     25798         1         0
     25801         1         0     25804         1         0     25807         1         0
     25810         1         0     25813         1         0     25816         1         0
     25819         1         0     25822         1         0     25825         1         0
     25828         1         0     25831         1         0     25834         1         0
     25837         1         0     25840         1         0     25843         1         0
     25846         1         0     25849         1         0     25852         1         0
     25855         1         0     25858         1         0     25861         1         0
     25864         1         0     25867         1         0     25870         1         0
     25873         1         0     25876         1         0     25879         1         0
     25882         1         0     25885         1         0     25888         1         0
     25891         1         0     25894         1         0     25897         1         0
     25900         1         0     25903         1         0     25906         1         0
     25909         1         0     25912         1         0     25915         1         0
     25918         1         0     25921         1         0     25924         1         0
     25927         1         0     25930         1         0     25933         1         0
     25936         1         0     25939         1         0     25942         1         0
     25945         1         0     25948         1         0     25951         1         0
     25954         1         0     25957         1         0     25960         1         0
     25963         1         0     25966         1         0     25969         1         0
     25972         1         0     25975         1         0     25978         1         0
     25981         1         0     25984         1         0     25987         1         0
     25990         1         0     25993         1         0     25996         1         0
     25999         1         0     26002         1         0     26005         1         0
     26008         1         0     26011         1         0     26014         1         0
     26017         1         0     26020         1         0     26023         1         0
     26026         1         0     26029         1         0     26032         1         0
     26035         1         0     26038         1         0     26041         1         0
     26044         1         0     26047         1         0     26050         1         0
     26053         1         0     26056         1         0     26059         1         0
     26062         1         0     26065         1         0     26068         1         0
     26071         1         0     26074         1         0     26077         1         0
     26080         1         0     26083         1         0     26086         1         0
     26089         1         0     26092         1         0     26095         1         0
     26098         1         0     26101         1         0     26104         1         0
     26107         1         0     26110         1         0     26113         1         0
     26116         1         0     26119         1         0     26122         1         0
     26125         1         0     26128         1         0     26131         1         0
     26134         1         0     26137         1         0     26140         1         0
     26143         1         0     26146         1         0     26149         1         0
     26152         1         0     26155         1         0     26158         1         0
     26161         1         0     26164         1         0     26167         1         0
     26170         1         0     26173         1         0     26176         1         0
     26179         1         0     26182         1         0     26185         1         0
     26188         1         0     26191         1         0     26194         1         0
     26197         1         0     26200         1         0     26203         1         0
     26206         1         0     26209         1         0     26212         1         0
     26215         1         0     26218         1         0     26221         1         0
     26224         1         0     26227         1         0     26230         1         0
     26233         1         0     26236         1         0     26239         1         0
     26242         1         0     26245         1         0     26248         1         0
     26251         1         0     26254         1         0     26257         1         0
     26260         1         0     26263         1         0     26266         1         0
     26269         1         0     26272         1         0     26275         1         0
     26278         1         0     26281         1         0     26284         1         0
     26287         1         0     26290         1         0     26293         1         0
     26296         1         0     26299         1         0     26302         1         0
     26305         1         0     26308         1         0     26311         1         0
     26314         1         0     26317         1         0     26320         1         0
     26323         1         0     26326         1         0     26329         1         0
     26332         1         0     26335         1         0     26338         1         0
     26341         1         0     26344         1         0     26347         1         0
     26350         1         0     26353         1         0     26356         1         0
     26359         1         0     26362         1         0     26365         1         0
     26368         1         0     26371         1         0     26374         1         0
     26377         1         0     26380         1         0     26383         1         0
     26386         1         0     26389         1         0     26392         1         0
     26395         1         0     26398         1         0     26401         1         0
     26404         1         0     26407         1         0     26410         1         0
     26413         1         0     26416         1         0     26419         1         0
     26422         1         0     26425         1         0     26428         1         0
     26431         1         0     26434         1         0     26437         1         0
     26440         1         0     26443         1         0     26446         1         0
     26449         1         0     26452         1         0     26455         1         0
     26458         1         0     26461         1         0     26464         1         0
     26467         1         0     26470         1         0     26473         1         0
     26476         1         0     26479         1         0     26482         1         0
     26485         1         0     26488         1         0     26491         1         0
     26494         1         0     26497         1         0     26500         1         0
     26503         1         0     26506         1         0     26509         1         0
     26512         1         0     26515         1         0     26518         1         0
     26521         1         0     26524         1         0     26527         1         0
     26530         1         0     26533         1         0     26536         1         0
     26539         1         0     26542         1         0     26545         1         0
     26548         1         0     26551         1         0     26554         1         0
     26557         1         0     26560         1         0     26563         1         0
     26566         1         0     26569         1         0     26572         1         0
     26575         1         0     26578         1         0     26581         1         0
     26584         1         0     26587         1         0     26590         1         0
     26593         1         0     26596         1         0     26599         1         0
     26602         1         0     26605         1         0     26608         1         0
     26611         1         0     26614         1         0     26617         1         0
     26620         1         0     26623         1         0     26626         1         0
     26629         1         0     26632         1         0     26635         1         0
     26638         1         0     26641         1         0     26644         1         0
     26647         1         0     26650         1         0     26653         1         0
     26656         1         0     26659         1         0     26662         1         0
     26665         1         0     26668         1         0     26671         1         0
     26674         1         0     26677         1         0     26680         1         0
     26683         1         0     26686         1         0     26689         1         0
     26692         1         0     26695         1         0     26698         1         0
     26701         1         0     26704         1         0     26707         1         0
     26710         1         0     26713         1         0     26716         1         0
     26719         1         0     26722         1         0     26725         1         0
     26728         1         0     26731         1         0     26734         1         0
     26737         1         0     26740         1         0     26743         1         0
     26746         1         0     26749         1         0     26752         1         0
     26755         1         0     26758         1         0     26761         1         0
     26764         1         0     26767         1         0     26770         1         0
     26773         1         0     26776         1         0     26779         1         0
     26782         1         0     26785         1         0     26788         1         0
     26791         1         0     26794         1         0     26797         1         0
     26800         1         0     26803         1         0     26806         1         0
     26809         1         0     26812         1         0     26815         1         0
     26818         1         0     26821         1         0     26824         1         0
     26827         1         0     26830         1         0     26833         1         0
     26836         1         0     26839         1         0     26842         1         0
     26845         1         0     26848         1         0     26851         1         0
     26854         1         0     26857         1         0     26860         1         0
     26863         1         0     26866         1         0     26869         1         0
     26872         1         0     26875         1         0     26878         1         0
     26881         1         0     26884         1         0     26887         1         0
     26890         1         0     26893         1         0     26896         1         0
     26899         1         0     26902         1         0     26905         1         0
     26908         1         0     26911         1         0     26914         1         0
     26917         1         0     26920         1         0     26923         1         0
     26926         1         0     26929         1         0     26932         1         0
     26935         1         0     26938         1         0     26941         1         0
     26944         1         0     26947         1         0     26950         1         0
     26953         1         0     26956         1         0     26959         1         0
     26962         1         0     26965         1         0     26968         1         0
     26971         1         0     26974         1         0     26977         1         0
     26980         1         0     26983         1         0     26986         1         0
     26989         1         0     26992         1         0     26995         1         0
     26998         1         0     27001         1         0     27004         1         0
     27007         1         0     27010         1         0     27013         1         0
     27016         1         0     27019         1         0     27022         1         0
     27025         1         0     27028         1         0     27031         1         0
     27034         1         0     27037         1         0     27040         1         0
     27043         1         0     27046         1         0     27049         1         0
     27052         1         0     27055         1         0     27058         1         0
     27061         1         0     27064         1         0     27067         1         0
     27070         1         0     27073         1         0     27076         1         0
     27079         1         0     27082         1         0     27085         1         0
     27088         1         0     27091         1         0     27094         1         0
     27097         1         0     27100         1         0     27103         1         0
     27106         1         0     27109         1         0     27112         1         0
     27115         1         0     27118         1         0     27121         1         0
     27124         1         0     27127         1         0     27130         1         0
     27133         1         0     27136         1         0     27139         1         0
     27142         1         0     27145         1         0     27148         1         0
     27151         1         0     27154         1         0     27157         1         0
     27160         1         0     27163         1         0     27166         1         0
     27169         1         0     27172         1         0     27175         1         0
     27178         1         0     27181         1         0     27184         1         0
     27187         1         0     27190         1         0     27193         1         0
     27196         1         0     27199         1         0     27202         1         0
     27205         1         0     27208         1         0     27211         1         0
     27214         1         0     27217         1         0     27220         1         0
     27223         1         0     27226         1         0     27229         1         0
     27232         1         0     27235         1         0     27238         1         0
     27241         1         0     27244         1         0     27247         1         0
     27250         1         0     27253         1         0     27256         1         0
     27259         1         0     27262         1         0     27265         1         0
     27268         1         0     27271         1         0     27274         1         0
     27277         1         0     27280         1         0     27283         1         0
     27286         1         0     27289         1         0     27292         1         0
     27295         1         0     27298         1         0     27301         1         0
     27304         1         0     27307         1         0     27310         1         0
     27313         1         0     27316         1         0     27319         1         0
     27322         1         0     27325         1         0     27328         1         0
     27331         1         0     27334         1         0     27337         1         0
     27340         1         0     27343         1         0     27346         1         0
     27349         1         0     27352         1         0     27355         1         0
     27358         1         0     27361         1         0     27364         1         0
     27367         1         0     27370         1         0     27373         1         0
     27376         1         0     27379         1         0     27382         1         0
     27385         1         0     27388         1         0     27391         1         0
     27394         1         0     27397         1         0     27400         1         0
     27403         1         0     27406         1         0     27409         1         0
     27412         1         0     27415         1         0     27418         1         0
     27421         1         0     27424         1         0     27427         1         0
     27430         1         0     27433         1         0     27436         1         0
     27439         1         0     27442         1         0     27445         1         0
     27448         1         0     27451         1         0     27454         1         0
     27457         1         0     27460         1         0     27463         1         0
     27466         1         0     27469         1         0     27472         1         0
     27475         1         0     27478         1         0     27481         1         0
     27484         1         0     27487         1         0     27490         1         0
     27493         1         0     27496         1         0     27499         1         0
     27502         1         0     27505         1         0     27508         1         0
     27511         1         0     27514         1         0     27517         1         0
     27520         1         0     27523         1         0     27526         1         0
     27529         1         0     27532         1         0     27535         1         0
     27538         1         0     27541         1         0     27544         1         0
     27547         1         0     27550         1         0     27553         1         0
     27556         1         0     27559         1         0     27562         1         0
     27565         1         0     27568         1         0     27571         1         0
     27574         1         0     27577         1         0     27580         1         0
     27583         1         0     27586         1         0     27589         1         0
     27592         1         0     27595         1         0     27598         1         0
     27601         1         0     27604         1         0     27607         1         0
     27610         1         0     27613         1         0     27616         1         0
     27619         1         0     27622         1         0     27625         1         0
     27628         1         0     27631         1         0     27634         1         0
     27637         1         0     27640         1         0     27643         1         0
     27646         1         0     27649         1         0     27652         1         0
     27655         1         0     27658         1         0     27661         1         0
     27664         1         0     27667         1         0     27670         1         0
     27673         1         0     27676         1         0     27679         1         0
     27682         1         0     27685         1         0     27688         1         0
     27691         1         0     27694         1         0     27697         1         0
     27700         1         0     27703         1         0     27706         1         0
     27709         1         0     27712         1         0     27715         1         0
     27718         1         0     27721         1         0     27724         1         0
     27727         1         0     27730         1         0     27733         1         0
     27736         1         0     27739         1         0     27742         1         0
     27745         1         0     27748         1         0     27751         1         0
     27754         1         0     27757         1         0     27760         1         0
     27763         1         0     27766         1         0     27769         1         0
     27772         1         0     27775         1         0     27778         1         0
     27781         1         0     27784         1         0     27787         1         0
     27790         1         0     27793         1         0     27796         1         0
     27799         1         0     27802         1         0     27805         1         0
     27808         1         0     27811         1         0     27814         1         0
     27817         1         0     27820         1         0     27823         1         0
     27826         1         0     27829         1         0     27832         1         0
     27835         1         0     27838         1         0     27841         1         0
     27844         1         0     27847         1         0     27850         1         0
     27853         1         0     27856         1         0     27859         1         0
     27862         1         0     27865         1         0     27868         1         0
     27871         1         0     27874         1         0     27877         1         0
     27880         1         0     27883         1         0     27886         1         0
     27889         1         0     27892         1         0     27895         1         0
     27898         1         0     27901         1         0     27904         1         0
     27907         1         0     27910         1         0     27913         1         0
     27916         1         0     27919         1         0     27922         1         0
     27925         1         0     27928         1         0     27931         1         0
     27934         1         0     27937         1         0     27940         1         0
     27943         1         0     27946         1         0     27949         1         0
     27952         1         0     27955         1         0     27958         1         0
     27961         1         0     27964         1         0     27967         1         0
     27970         1         0     27973         1         0     27976         1         0
     27979         1         0     27982         1         0     27985         1         0
     27988         1         0     27991         1         0     27994         1         0
     27997         1         0     28000         1         0     28003         1         0
     28006         1         0     28009         1         0     28012         1         0
     28015         1         0     28018         1         0     28021         1         0
     28024         1         0     28027         1         0     28030         1         0
     28033         1         0     28036         1         0     28039         1         0
     28042         1         0     28045         1         0     28048         1         0
     28051         1         0     28054         1         0     28057         1         0
     28060         1         0     28063         1         0     28066         1         0
     28069         1         0     28072         1         0     28075         1         0
     28078         1         0     28081         1         0     28084         1         0
     28087         1         0     28090         1         0     28093         1         0
     28096         1         0     28099         1         0     28102         1         0
     28105         1         0     28108         1         0     28111         1         0
     28114         1         0     28117         1         0     28120         1         0
     28123         1         0     28126         1         0     28129         1         0
     28132         1         0     28135         1         0     28138         1         0
     28141         1         0     28144         1         0     28147         1         0
     28150         1         0     28153         1         0     28156         1         0
     28159         1         0     28162         1         0     28165         1         0
     28168         1         0     28171         1         0     28174         1         0
     28177         1         0     28180         1         0     28183         1         0
     28186         1         0     28189         1         0     28192         1         0
     28195         1         0     28198         1         0     28201         1         0
     28204         1         0     28207         1         0     28210         1         0
     28213         1         0     28216         1         0     28219         1         0
     28222         1         0     28225         1         0     28228         1         0
     28231         1         0     28234         1         0     28237         1         0
     28240         1         0     28243         1         0     28246         1         0
     28249         1         0     28252         1         0     28255         1         0
     28258         1         0     28261         1         0     28264         1         0
     28267         1         0     28270         1         0     28273         1         0
     28276         1         0     28279         1         0     28282         1         0
     28285         1         0     28288         1         0     28291         1         0
     28294         1         0     28297         1         0     28300         1         0
     28303         1         0     28306         1         0     28309         1         0
     28312         1         0     28315         1         0     28318         1         0
     28321         1         0     28324         1         0     28327         1         0
     28330         1         0     28333         1         0     28336         1         0
     28339         1         0     28342         1         0     28345         1         0
     28348         1         0     28351         1         0     28354         1         0
     28357         1         0     28360         1         0     28363         1         0
     28366         1         0     28369         1         0     28372         1         0
     28375         1         0     28378         1         0     28381         1         0
     28384         1         0     28387         1         0     28390         1         0
     28393         1         0     28396         1         0     28399         1         0
     28402         1         0     28405         1         0     28408         1         0
     28411         1         0     28414         1         0     28417         1         0
     28420         1         0     28423         1         0     28426         1         0
     28429         1         0     28432         1         0     28435         1         0
     28438         1         0     28441         1         0     28444         1         0
     28447         1         0     28450         1         0     28453         1         0
     28456         1         0     28459         1         0     28462         1         0
     28465         1         0     28468         1         0     28471         1         0
     28474         1         0     28477         1         0     28480         1         0
     28483         1         0     28486         1         0     28489         1         0
     28492         1         0     28495         1         0     28498         1         0
     28501         1         0     28504         1         0     28507         1         0
     28510         1         0     28513         1         0     28516         1         0
     28519         1         0     28522         1         0     28525         1         0
     28528         1         0     28531         1         0     28534         1         0
     28537         1         0     28540         1         0     28543         1         0
     28546         1         0     28549         1         0     28552         1         0
     28555         1         0     28558         1         0     28561         1         0
     28564         1         0     28567         1         0     28570         1         0
     28573         1         0     28576         1         0     28579         1         0
     28582         1         0     28585         1         0     28588         1         0
     28591         1         0     28594         1         0     28597         1         0
     28600         1         0     28603         1         0     28606         1         0
     28609         1         0     28612         1         0     28615         1         0
     28618         1         0     28621         1         0     28624         1         0
     28627         1         0     28630         1         0     28633         1         0
     28636         1         0     28639         1         0     28642         1         0
     28645         1         0     28648         1         0     28651         1         0
     28654         1         0     28657         1         0     28660         1         0
     28663         1         0     28666         1         0     28669         1         0
     28672         1         0     28675         1         0     28678         1         0
     28681         1         0     28684         1         0     28687         1         0
     28690         1         0     28693         1         0     28696         1         0
     28699         1         0     28702         1         0     28705         1         0
     28708         1         0     28711         1         0     28714         1         0
     28717         1         0     28720         1         0     28723         1         0
     28726         1         0     28729         1         0     28732         1         0
     28735         1         0     28738         1         0     28741         1         0
     28744         1         0     28747         1         0     28750         1         0
     28753         1         0     28756         1         0     28759         1         0
     28762         1         0     28765         1         0     28768         1         0
     28771         1         0     28774         1         0     28777         1         0
     28780         1         0     28783         1         0     28786         1         0
     28789         1         0     28792         1         0     28795         1         0
     28798         1         0     28801         1         0     28804         1         0
     28807         1         0     28810         1         0     28813         1         0
     28816         1         0     28819         1         0     28822         1         0
     28825         1         0     28828         1         0     28831         1         0
     28834         1         0     28837         1         0     28840         1         0
     28843         1         0     28846         1         0     28849         1         0
     28852         1         0     28855         1         0     28858         1         0
     28861         1         0     28864         1         0     28867         1         0
     28870         1         0     28873         1         0     28876         1         0
     28879         1         0     28882         1         0     28885         1         0
     28888         1         0     28891         1         0     28894         1         0
     28897         1         0     28900         1         0     28903         1         0
     28906         1         0     28909         1         0     28912         1         0
     28915         1         0     28918         1         0     28921         1         0
     28924         1         0     28927         1         0     28930         1         0
     28933         1         0     28936         1         0     28939         1         0
     28942         1         0     28945         1         0     28948         1         0
     28951         1         0     28954         1         0     28957         1         0
     28960         1         0     28963         1         0     28966         1         0
     28969         1         0     28972         1         0     28975         1         0
     28978         1         0     28981         1         0     28984         1         0
     28987         1         0     28990         1         0     28993         1         0
     28996         1         0     28999         1         0     29002         1         0
     29005         1         0     29008         1         0     29011         1         0
     29014         1         0     29017         1         0     29020         1         0
     29023         1         0     29026         1         0     29029         1         0
     29032         1         0     29035         1         0     29038         1         0
     29041         1         0     29044         1         0     29047         1         0
     29050         1         0     29053         1         0     29056         1         0
     29059         1         0     29062         1         0     29065         1         0
     29068         1         0     29071         1         0     29074         1         0
     29077         1         0     29080         1         0     29083         1         0
     29086         1         0     29089         1         0     29092         1         0
     29095         1         0     29098         1         0     29101         1         0
     29104         1         0     29107         1         0     29110         1         0
     29113         1         0     29116         1         0     29119         1         0
     29122         1         0     29125         1         0     29128         1         0
     29131         1         0     29134         1         0     29137         1         0
     29140         1         0     29143         1         0     29146         1         0
     29149         1         0     29152         1         0     29155         1         0
     29158         1         0     29161         1         0     29164         1         0
     29167         1         0     29170         1         0     29173         1         0
     29176         1         0     29179         1         0     29182         1         0
     29185         1         0     29188         1         0     29191         1         0
     29194         1         0     29197         1         0     29200         1         0
     29203         1         0     29206         1         0     29209         1         0
     29212         1         0     29215         1         0     29218         1         0
     29221         1         0     29224         1         0     29227         1         0
     29230         1         0     29233         1         0     29236         1         0
     29239         1         0     29242         1         0     29245         1         0
     29248         1         0     29251         1         0     29254         1         0
     29257         1         0     29260         1         0     29263         1         0
     29266         1         0     29269         1         0     29272         1         0
     29275         1         0     29278         1         0     29281         1         0
     29284         1         0     29287         1         0     29290         1         0
     29293         1         0     29296         1         0     29299         1         0
     29302         1         0     29305         1         0     29308         1         0
     29311         1         0     29314         1         0     29317         1         0
     29320         1         0     29323         1         0     29326         1         0
     29329         1         0     29332         1         0     29335         1         0
     29338         1         0     29341         1         0     29344         1         0
     29347         1         0     29350         1         0     29353         1         0
     29356         1         0     29359         1         0     29362         1         0
     29365         1         0     29368         1         0     29371         1         0
     29374         1         0     29377         1         0     29380         1         0
     29383         1         0     29386         1         0     29389         1         0
     29392         1         0     29395         1         0     29398         1         0
     29401         1         0     29404         1         0     29407         1         0
     29410         1         0     29413         1         0     29416         1         0
     29419         1         0     29422         1         0     29425         1         0
     29428         1         0     29431         1         0     29434         1         0
     29437         1         0     29440         1         0     29443         1         0
     29446         1         0     29449         1         0     29452         1         0
     29455         1         0     29458         1         0     29461         1         0
     29464         1         0     29467         1         0     29470         1         0
     29473         1         0     29476         1         0     29479         1         0
     29482         1         0     29485         1         0     29488         1         0
     29491         1         0     29494         1         0     29497         1         0
     29500         1         0     29503         1         0     29506         1         0
     29509         1         0     29512         1         0     29515         1         0
     29518         1         0     29521         1         0     29524         1         0
     29527         1         0     29530         1         0     29533         1         0
     29536         1         0     29539         1         0     29542         1         0
     29545         1         0     29548         1         0     29551         1         0
     29554         1         0     29557         1         0     29560         1         0
     29563         1         0     29566         1         0     29569         1         0
     29572         1         0     29575         1         0     29578         1         0
     29581         1         0     29584         1         0     29587         1         0
     29590         1         0     29593         1         0     29596         1         0
     29599         1         0     29602         1         0     29605         1         0
     29608         1         0     29611         1         0     29614         1         0
     29617         1         0     29620         1         0     29623         1         0
     29626         1         0     29629         1         0     29632         1         0
     29635         1         0     29638         1         0     29641         1         0
     29644         1         0     29647         1         0     29650         1         0
     29653         1         0     29656         1         0     29659         1         0
     29662         1         0     29665         1         0     29668         1         0
     29671         1         0     29674         1         0     29677         1         0
     29680         1         0     29683         1         0     29686         1         0
     29689         1         0     29692         1         0     29695         1         0
     29698         1         0     29701         1         0     29704         1         0
     29707         1         0     29710         1         0     29713         1         0
     29716         1         0     29719         1         0     29722         1         0
     29725         1         0     29728         1         0     29731         1         0
     29734         1         0     29737         1         0     29740         1         0
     29743         1         0     29746         1         0     29749         1         0
     29752         1         0     29755         1         0     29758         1         0
     29761         1         0     29764         1         0     29767         1         0
     29770         1         0     29773         1         0     29776         1         0
     29779         1         0     29782         1         0     29785         1         0
     29788         1         0     29791         1         0     29794         1         0
     29797         1         0     29800         1         0     29803         1         0
     29806         1         0     29809         1         0     29812         1         0
     29815         1         0     29818         1         0     29821         1         0
     29824         1         0     29827         1         0     29830         1         0
     29833         1         0     29836         1         0     29839         1         0
     29842         1         0     29845         1         0     29848         1         0
     29851         1         0     29854         1         0     29857         1         0
     29860         1         0     29863         1         0     29866         1         0
     29869         1         0     29872         1         0     29875         1         0
     29878         1         0     29881         1         0     29884         1         0
     29887         1         0     29890         1         0     29893         1         0
     29896         1         0     29899         1         0     29902         1         0
     29905         1         0     29908         1         0     29911         1         0
     29914         1         0     29917         1         0     29920         1         0
     29923         1         0     29926         1         0     29929         1         0
     29932         1         0     29935         1         0     29938         1         0
     29941         1         0     29944         1         0     29947         1         0
     29950         1         0     29953         1         0     29956         1         0
     29959         1         0     29962         1         0     29965         1         0
     29968         1         0     29971         1         0     29974         1         0
     29977         1         0     29980         1         0     29983         1         0
     29986         1         0     29989         1         0     29992         1         0
     29995         1         0     29998         1         0     30001         1         0
     30004         1         0     30007         1         0     30010         1         0
     30013         1         0     30016         1         0     30019         1         0
     30022         1         0     30025         1         0     30028         1         0
     30031         1         0     30034         1         0     30037         1         0
     30040         1         0     30043         1         0     30046         1         0
     30049         1         0     30052         1         0     30055         1         0
     30058         1         0     30061         1         0     30064         1         0
     30067         1         0     30070         1         0     30073         1         0
     30076         1         0     30079         1         0     30082         1         0
     30085         1         0     30088         1         0     30091         1         0
     30094         1         0     30097         1         0     30100         1         0
     30103         1         0     30106         1         0     30109         1         0
     30112         1         0     30115         1         0     30118         1         0
     30121         1         0     30124         1         0     30127         1         0
     30130         1         0     30133         1         0     30136         1         0
     30139         1         0     30142         1         0     30145         1         0
     30148         1         0     30151         1         0     30154         1         0
     30157         1         0     30160         1         0     30163         1         0
     30166         1         0     30169         1         0     30172         1         0
     30175         1         0     30178         1         0     30181         1         0
     30184         1         0     30187         1         0     30190         1         0
     30193         1         0     30196         1         0     30199         1         0
     30202         1         0     30205         1         0     30208         1         0
     30211         1         0     30214         1         0     30217         1         0
     30220         1         0     30223         1         0     30226         1         0
     30229         1         0     30232         1         0     30235         1         0
     30238         1         0     30241         1         0     30244         1         0
     30247         1         0     30250         1         0     30253         1         0
     30256         1         0     30259         1         0     30262         1         0
     30265         1         0     30268         1         0     30271         1         0
     30274         1         0     30277         1         0     30280         1         0
     30283         1         0     30286         1         0     30289         1         0
     30292         1         0     30295         1         0     30298         1         0
     30301         1         0     30304         1         0     30307         1         0
     30310         1         0     30313         1         0     30316         1         0
     30319         1         0     30322         1         0     30325         1         0
     30328         1         0     30331         1         0     30334         1         0
     30337         1         0     30340         1         0     30343         1         0
     30346         1         0     30349         1         0     30352         1         0
     30355         1         0     30358         1         0     30361         1         0
     30364         1         0     30367         1         0     30370         1         0
     30373         1         0     30376         1         0     30379         1         0
     30382         1         0     30385         1         0     30388         1         0
     30391         1         0     30394         1         0     30397         1         0
     30400         1         0     30403         1         0     30406         1         0
     30409         1         0     30412         1         0     30415         1         0
     30418         1         0     30421         1         0     30424         1         0
     30427         1         0     30430         1         0     30433         1         0
     30436         1         0     30439         1         0     30442         1         0
     30445         1         0     30448         1         0     30451         1         0
     30454         1         0     30457         1         0     30460         1         0
     30463         1         0     30466         1         0     30469         1         0
     30472         1         0     30475         1         0     30478         1         0
     30481         1         0     30484         1         0     30487         1         0
     30490         1         0     30493         1         0     30496         1         0
     30499         1         0     30502         1         0     30505         1         0
     30508         1         0     30511         1         0     30514         1         0
     30517         1         0     30520         1         0     30523         1         0
     30526         1         0     30529         1         0     30532         1         0
     30535         1         0     30538         1         0     30541         1         0
     30544         1         0     30547         1         0     30550         1         0
     30553         1         0     30556         1         0     30559         1         0
     30562         1         0     30565         1         0     30568         1         0
     30571         1         0     30574         1         0     30577         1         0
     30580         1         0     30583         1         0     30586         1         0
     30589         1         0     30592         1         0     30595         1         0
     30598         1         0     30601         1         0     30604         1         0
     30607         1         0     30610         1         0     30613         1         0
     30616         1         0     30619         1         0     30622         1         0
     30625         1         0     30628         1         0     30631         1         0
     30634         1         0     30637         1         0     30640         1         0
     30643         1         0     30646         1         0     30649         1         0
     30652         1         0     30655         1         0     30658         1         0
     30661         1         0     30664         1         0     30667         1         0
     30670         1         0     30673         1         0     30676         1         0
     30679         1         0     30682         1         0     30685         1         0
     30688         1         0     30691         1         0     30694         1         0
     30697         1         0     30700         1         0     30703         1         0
     30706         1         0     30709         1         0     30712         1         0
     30715         1         0     30718         1         0     30721         1         0
     30724         1         0     30727         1         0     30730         1         0
     30733         1         0     30736         1         0     30739         1         0
     30742         1         0     30745         1         0     30748         1         0
     30751         1         0     30754         1         0     30757         1         0
     30760         1         0     30763         1         0     30766         1         0
     30769         1         0     30772         1         0     30775         1         0
     30778         1         0     30781         1         0     30784         1         0
     30787         1         0     30790         1         0     30793         1         0
     30796         1         0     30799         1         0     30802         1         0
     30805         1         0     30808         1         0     30811         1         0
     30814         1         0     30817         1         0     30820         1         0
     30823         1         0     30826         1         0     30829         1         0
     30832         1         0     30835         1         0     30838         1         0
     30841         1         0     30844         1         0     30847         1         0
     30850         1         0     30853         1         0     30856         1         0
     30859         1         0     30862         1         0     30865         1         0
     30868         1         0     30871         1         0     30874         1         0
     30877         1         0     30880         1         0     30883         1         0
     30886         1         0     30889         1         0     30892         1         0
     30895         1         0     30898         1         0     30901         1         0
     30904         1         0     30907         1         0     30910         1         0
     30913         1         0     30916         1         0     30919         1         0
     30922         1         0     30925         1         0     30928         1         0
     30931         1         0     30934         1         0     30937         1         0
     30940         1         0     30943         1         0     30946         1         0
     30949         1         0     30952         1         0     30955         1         0
     30958         1         0     30961         1         0     30964         1         0
     30967         1         0     30970         1         0     30973         1         0
     30976         1         0     30979         1         0     30982         1         0
     30985         1         0     30988         1         0     30991         1         0
     30994         1         0     30997         1         0     31000         1         0
     31003         1         0     31006         1         0     31009         1         0
     31012         1         0     31015         1         0     31018         1         0
     31021         1         0     31024         1         0     31027         1         0
     31030         1         0     31033         1         0     31036         1         0
     31039         1         0     31042         1         0     31045         1         0
     31048         1         0     31051         1         0     31054         1         0
     31057         1         0     31060         1         0     31063         1         0
     31066         1         0     31069         1         0     31072         1         0
     31075         1         0     31078         1         0     31081         1         0
     31084         1         0     31087         1         0     31090         1         0
     31093         1         0     31096         1         0     31099         1         0
     31102         1         0     31105         1         0     31108         1         0
     31111         1         0     31114         1         0     31117         1         0
     31120         1         0     31123         1         0     31126         1         0
     31129         1         0     31132         1         0     31135         1         0
     31138         1         0     31141         1         0     31144         1         0
     31147         1         0     31150         1         0     31153         1         0
     31156         1         0     31159         1         0     31162         1         0
     31165         1         0     31168         1         0     31171         1         0
     31174         1         0     31177         1         0     31180         1         0
     31183         1         0     31186         1         0     31189         1         0
     31192         1         0     31195         1         0     31198         1         0
     31201         1         0     31204         1         0     31207         1         0
     31210         1         0     31213         1         0     31216         1         0
     31219         1         0     31222         1         0     31225         1         0
     31228         1         0     31231         1         0     31234         1         0
     31237         1         0     31240         1         0     31243         1         0
     31246         1         0     31249         1         0     31252         1         0
     31255         1         0     31258         1         0     31261         1         0
     31264         1         0     31267         1         0     31270         1         0
     31273         1         0     31276         1         0     31279         1         0
     31282         1         0     31285         1         0     31288         1         0
     31291         1         0     31294         1         0     31297         1         0
     31300         1         0     31303         1         0     31306         1         0
     31309         1         0     31312         1         0     31315         1         0
     31318         1         0     31321         1         0     31324         1         0
     31327         1         0     31330         1         0     31333         1         0
     31336         1         0     31339         1         0     31342         1         0
     31345         1         0     31348         1         0     31351         1         0
     31354         1         0     31357         1         0     31360         1         0
     31363         1         0     31366         1         0     31369         1         0
     31372         1         0     31375         1         0     31378         1         0
     31381         1         0     31384         1         0     31387         1         0
     31390         1         0     31393         1         0     31396         1         0
     31399         1         0     31402         1         0     31405         1         0
     31408         1         0     31411         1         0     31414         1         0
     31417         1         0     31420         1         0     31423         1         0
     31426         1         0     31429         1         0     31432         1         0
     31435         1         0     31438         1         0     31441         1         0
     31444         1         0     31447         1         0     31450         1         0
     31453         1         0     31456         1         0     31459         1         0
     31462         1         0     31465         1         0     31468         1         0
     31471         1         0     31474         1         0     31477         1         0
     31480         1         0     31483         1         0     31486         1         0
     31489         1         0     31492         1         0     31495         1         0
     31498         1         0     31501         1         0     31504         1         0
     31507         1         0     31510         1         0     31513         1         0
     31516         1         0     31519         1         0     31522         1         0
     31525         1         0     31528         1         0     31531         1         0
     31534         1         0     31537         1         0     31540         1         0
     31543         1         0     31546         1         0     31549         1         0
     31552         1         0     31555         1         0     31558         1         0
     31561         1         0     31564         1         0     31567         1         0
     31570         1         0     31573         1         0     31576         1         0
     31579         1         0     31582         1         0     31585         1         0
     31588         1         0     31591         1         0     31594         1         0
     31597         1         0     31600         1         0     31603         1         0
     31606         1         0     31609         1         0     31612         1         0
     31615         1         0     31618         1         0     31621         1         0
     31624         1         0     31627         1         0     31630         1         0
     31633         1         0     31636         1         0     31639         1         0
     31642         1         0     31645         1         0     31648         1         0
     31651         1         0     31654         1         0     31657         1         0
     31660         1         0     31663         1         0     31666         1         0
     31669         1         0     31672         1         0     31675         1         0
     31678         1         0     31681         1         0     31684         1         0
     31687         1         0     31690         1         0     31693         1         0
     31696         1         0     31699         1         0     31702         1         0
     31705         1         0     31708         1         0     31711         1         0
     31714         1         0     31717         1         0     31720         1         0
     31723         1         0     31726         1         0     31729         1         0
     31732         1         0     31735         1         0     31738         1         0
     31741         1         0     31744         1         0     31747         1         0
     31750         1         0     31753         1         0     31756         1         0
     31759         1         0     31762         1         0     31765         1         0
     31768         1         0     31771         1         0     31774         1         0
     31777         1         0     31780         1         0     31783         1         0
     31786         1         0     31789         1         0     31792         1         0
     31795         1         0     31798         1         0     31801         1         0
     31804         1         0     31807         1         0     31810         1         0
     31813         1         0     31816         1         0     31819         1         0
     31822         1         0     31825         1         0     31828         1         0
     31831         1         0     31834         1         0     31837         1         0
     31840         1         0     31843         1         0     31846         1         0
     31849         1         0     31852         1         0     31855         1         0
     31858         1         0     31861         1         0     31864         1         0
     31867         1         0     31870         1         0     31873         1         0
     31876         1         0     31879         1         0     31882         1         0
     31885         1         0     31888         1         0     31891         1         0
     31894         1         0     31897         1         0     31900         1         0
     31903         1         0     31906         1         0     31909         1         0
     31912         1         0     31915         1         0     31918         1         0
     31921         1         0     31924         1         0     31927         1         0
     31930         1         0     31933         1         0     31936         1         0
     31939         1         0     31942         1         0     31945         1         0
     31948         1         0     31951         1         0     31954         1         0
     31957         1         0     31960         1         0     31963         1         0
     31966         1         0     31969         1         0     31972         1         0
     31975         1         0     31978         1         0     31981         1         0
     31984         1         0     31987         1         0     31990         1         0
     31993         1         0     31996         1         0     31999         1         0
     32002         1         0     32005         1         0     32008         1         0
     32011         1         0     32014         1         0     32017         1         0
     32020         1         0     32023         1         0     32026         1         0
     32029         1         0     32032         1         0     32035         1         0
     32038         1         0     32041         1         0     32044         1         0
     32047         1         0     32050         1         0     32053         1         0
     32056         1         0     32059         1         0     32062         1         0
     32065         1         0     32068         1         0     32071         1         0
     32074         1         0     32077         1         0     32080         1         0
     32083         1         0     32086         1         0     32089         1         0
     32092         1         0     32095         1         0     32098         1         0
     32101         1         0     32104         1         0     32107         1         0
     32110         1         0     32113         1         0     32116         1         0
     32119         1         0     32122         1         0     32125         1         0
     32128         1         0     32131         1         0     32134         1         0
     32137         1         0     32140         1         0     32143         1         0
     32146         1         0     32149         1         0     32152         1         0
     32155         1         0     32158         1         0     32161         1         0
     32164         1         0     32167         1         0     32170         1         0
     32173         1         0     32176         1         0     32179         1         0
     32182         1         0     32185         1         0     32188         1         0
     32191         1         0     32194         1         0     32197         1         0
     32200         1         0     32203         1         0     32206         1         0
     32209         1         0     32212         1         0     32215         1         0
     32218         1         0     32221         1         0     32224         1         0
     32227         1         0     32230         1         0     32233         1         0
     32236         1         0     32239         1         0     32242         1         0
     32245         1         0     32248         1         0     32251         1         0
     32254         1         0     32257         1         0     32260         1         0
     32263         1         0     32266         1         0     32269         1         0
     32272         1         0     32275         1         0     32278         1         0
     32281         1         0     32284         1         0     32287         1         0
     32290         1         0     32293         1         0     32296         1         0
     32299         1         0     32302         1         0     32305         1         0
     32308         1         0     32311         1         0     32314         1         0
     32317         1         0     32320         1         0     32323         1         0
     32326         1         0     32329         1         0     32332         1         0
     32335         1         0     32338         1         0     32341         1         0
     32344         1         0     32347         1         0     32350         1         0
     32353         1         0     32356         1         0     32359         1         0
     32362         1         0     32365         1         0     32368         1         0
     32371         1         0     32374         1         0     32377         1         0
     32380         1         0     32383         1         0     32386         1         0
     32389         1         0     32392         1         0     32395         1         0
     32398         1         0     32401         1         0     32404         1         0
     32407         1         0     32410         1         0     32413         1         0
     32416         1         0     32419         1         0     32422         1         0
     32425         1         0     32428         1         0     32431         1         0
     32434         1         0     32437         1         0     32440         1         0
     32443         1         0     32446         1         0     32449         1         0
     32452         1         0     32455         1         0     32458         1         0
     32461         1         0     32464         1         0     32467         1         0
     32470         1         0     32473         1         0     32476         1         0
     32479         1         0     32482         1         0     32485         1         0
     32488         1         0     32491         1         0     32494         1         0
     32497         1         0     32500         1         0     32503         1         0
     32506         1         0     32509         1         0     32512         1         0
     32515         1         0     32518         1         0     32521         1         0
     32524         1         0     32527         1         0     32530         1         0
     32533         1         0     32536         1         0     32539         1         0
     32542         1         0     32545         1         0     32548         1         0
     32551         1         0     32554         1         0     32557         1         0
     32560         1         0     32563         1         0     32566         1         0
     32569         1         0     32572         1         0     32575         1         0
     32578         1         0     32581         1         0     32584         1         0
     32587         1         0     32590         1         0     32593         1         0
     32596         1         0     32599         1         0     32602         1         0
     32605         1         0     32608         1         0     32611         1         0
     32614         1         0     32617         1         0     32620         1         0
     32623         1         0     32626         1         0     32629         1         0
     32632         1         0     32635         1         0     32638         1         0
     32641         1         0     32644         1         0     32647         1         0
     32650         1         0     32653         1         0     32656         1         0
     32659         1         0     32662         1         0     32665         1         0
     32668         1         0     32671         1         0     32674         1         0
     32677         1         0     32680         1         0     32683         1         0
     32686         1         0     32689         1         0     32692         1         0
     32695         1         0     32698         1         0     32701         1         0
     32704         1         0     32707         1         0     32710         1         0
     32713         1         0     32716         1         0     32719         1         0
     32722         1         0     32725         1         0     32728         1         0
     32731         1         0     32734         1         0     32737         1         0
     32740         1         0     32743         1         0     32746         1         0
     32749         1         0     32752         1         0     32755         1         0
     32758         1         0     32761         1         0     32764         1         0
     32767         1         0     32770         1         0     32773         1         0
     32776         1         0     32779         1         0     32782         1         0
     32785         1         0     32788         1         0     32791         1         0
     32794         1         0     32797         1         0     32800         1         0
     32803         1         0     32806         1         0     32809         1         0
     32812         1         0     32815         1         0     32818         1         0
     32821         1         0     32824         1         0     32827         1         0
     32830         1         0     32833         1         0     32836         1         0
     32839         1         0     32842         1         0     32845         1         0
     32848         1         0     32851         1         0     32854         1         0
     32857         1         0     32860         1         0     32863         1         0
     32866         1         0     32869         1         0     32872         1         0
     32875         1         0     32878         1         0     32881         1         0
     32884         1         0     32887         1         0     32890         1         0
     32893         1         0     32896         1         0     32899         1         0
     32902         1         0     32905         1         0     32908         1         0
     32911         1         0     32914         1         0     32917         1         0
     32920         1         0     32923         1         0     32926         1         0
     32929         1         0     32932         1         0     32935         1         0
     32938         1         0     32941         1         0     32944         1         0
     32947         1         0     32950         1         0     32953         1         0
     32956         1         0     32959         1         0     32962         1         0
     32965         1         0     32968         1         0     32971         1         0
     32974         1         0     32977         1         0     32980         1         0
     32983         1         0     32986         1         0     32989         1         0
     32992         1         0     32995         1         0     32998         1         0
     33001         1         0     33004         1         0     33007         1         0
     33010         1         0     33013         1         0     33016         1         0
     33019         1         0     33022         1         0     33025         1         0
     33028         1         0     33031         1         0     33034         1         0
     33037         1         0     33040         1         0     33043         1         0
     33046         1         0     33049         1         0     33052         1         0
     33055         1         0     33058         1         0     33061         1         0
     33064         1         0     33067         1         0     33070         1         0
     33073         1         0     33076         1         0     33079         1         0
     33082         1         0     33085         1         0     33088         1         0
     33091         1         0     33094         1         0     33097         1         0
     33100         1         0     33103         1         0     33106         1         0
     33109         1         0     33112         1         0     33115         1         0
     33118         1         0     33121         1         0     33124         1         0
     33127         1         0     33130         1         0     33133         1         0
     33136         1         0     33139         1         0     33142         1         0
     33145         1         0     33148         1         0     33151         1         0
     33154         1         0     33157         1         0     33160         1         0
     33163         1         0     33166         1         0     33169         1         0
     33172         1         0     33175         1         0     33178         1         0
     33181         1         0     33184         1         0     33187         1         0
     33190         1         0     33193         1         0     33196         1         0
     33199         1         0     33202         1         0     33205         1         0
     33208         1         0     33211         1         0     33214         1         0
     33217         1         0     33220         1         0     33223         1         0
     33226         1         0     33229         1         0     33232         1         0
     33235         1         0     33238         1         0     33241         1         0
     33244         1         0     33247         1         0     33250         1         0
     33253         1         0     33256         1         0     33259         1         0
     33262         1         0     33265         1         0     33268         1         0
     33271         1         0     33274         1         0     33277         1         0
     33280         1         0     33283         1         0     33286         1         0
     33289         1         0     33292         1         0     33295         1         0
     33298         1         0     33301         1         0     33304         1         0
     33307         1         0     33310         1         0     33313         1         0
     33316         1         0     33319         1         0     33322         1         0
     33325         1         0     33328         1         0     33331         1         0
     33334         1         0     33337         1         0     33340         1         0
     33343         1         0     33346         1         0     33349         1         0
     33352         1         0     33355         1         0     33358         1         0
     33361         1         0     33364         1         0     33367         1         0
     33370         1         0     33373         1         0     33376         1         0
     33379         1         0     33382         1         0     33385         1         0
     33388         1         0     33391         1         0     33394         1         0
     33397         1         0     33400         1         0     33403         1         0
     33406         1         0     33409         1         0     33412         1         0
     33415         1         0     33418         1         0     33421         1         0
     33424         1         0     33427         1         0     33430         1         0
     33433         1         0     33436         1         0     33439         1         0
     33442         1         0     33445         1         0     33448         1         0
     33451         1         0     33454         1         0     33457         1         0
     33460         1         0     33463         1         0     33466         1         0
     33469         1         0     33472         1         0     33475         1         0
     33478         1         0     33481         1         0     33484         1         0
     33487         1         0     33490         1         0     33493         1         0
     33496         1         0     33499         1         0     33502         1         0
     33505         1         0     33508         1         0     33511         1         0
     33514         1         0     33517         1         0     33520         1         0
     33523         1         0     33526         1         0     33529         1         0
     33532         1         0     33535         1         0     33538         1         0
     33541         1         0     33544         1         0     33547         1         0
     33550         1         0     33553         1         0     33556         1         0
     33559         1         0     33562         1         0     33565         1         0
     33568         1         0     33571         1         0     33574         1         0
     33577         1         0     33580         1         0     33583         1         0
     33586         1         0     33589         1         0     33592         1         0
     33595         1         0     33598         1         0     33601         1         0
     33604         1         0     33607         1         0     33610         1         0
     33613         1         0     33616         1         0     33619         1         0
     33622         1         0     33625         1         0     33628         1         0
     33631         1         0     33634         1         0     33637         1         0
     33640         1         0     33643         1         0     33646         1         0
     33649         1         0     33652         1         0     33655         1         0
     33658         1         0     33661         1         0     33664         1         0
     33667         1         0     33670         1         0     33673         1         0
     33676         1         0     33679         1         0     33682         1         0
     33685         1         0     33688         1         0     33691         1         0
     33694         1         0     33697         1         0     33700         1         0
     33703         1         0     33706         1         0     33709         1         0
     33712         1         0     33715         1         0     33718         1         0
     33721         1         0     33724         1         0     33727         1         0
     33730         1         0     33733         1         0     33736         1         0
     33739         1         0     33742         1         0     33745         1         0
     33748         1         0     33751         1         0     33754         1         0
     33757         1         0     33760         1         0     33763         1         0
     33766         1         0     33769         1         0     33772         1         0
     33775         1         0     33778         1         0     33781         1         0
     33784         1         0     33787         1         0     33790         1         0
     33793         1         0     33796         1         0     33799         1         0
     33802         1         0     33805         1         0     33808         1         0
     33811         1         0     33814         1         0     33817         1         0
     33820         1         0     33823         1         0     33826         1         0
     33829         1         0     33832         1         0     33835         1         0
     33838         1         0     33841         1         0     33844         1         0
     33847         1         0     33850         1         0     33853         1         0
     33856         1         0     33859         1         0     33862         1         0
     33865         1         0     33868         1         0     33871         1         0
     33874         1         0     33877         1         0     33880         1         0
     33883         1         0     33886         1         0     33889         1         0
     33892         1         0     33895         1         0     33898         1         0
     33901         1         0     33904         1         0     33907         1         0
     33910         1         0     33913         1         0     33916         1         0
     33919         1         0     33922         1         0     33925         1         0
     33928         1         0     33931         1         0     33934         1         0
     33937         1         0     33940         1         0     33943         1         0
     33946         1         0     33949         1         0     33952         1         0
     33955         1         0     33958         1         0     33961         1         0
     33964         1         0     33967         1         0     33970         1         0
     33973         1         0     33976         1         0     33979         1         0
     33982         1         0     33985         1         0     33988         1         0
     33991         1         0     33994         1         0     33997         1         0
     34000         1         0     34003         1         0     34006         1         0
     34009         1         0     34012         1         0     34015         1         0
     34018         1         0     34021         1         0     34024         1         0
     34027         1         0     34030         1         0     34033         1         0
     34036         1         0     34039         1         0     34042         1         0
     34045         1         0     34048         1         0     34051         1         0
     34054         1         0     34057         1         0     34060         1         0
     34063         1         0     34066         1         0     34069         1         0
     34072         1         0     34075         1         0     34078         1         0
     34081         1         0     34084         1         0     34087         1         0
     34090         1         0     34093         1         0     34096         1         0
     34099         1         0     34102         1         0     34105         1         0
     34108         1         0     34111         1         0     34114         1         0
     34117         1         0     34120         1         0     34123         1         0
     34126         1         0     34129         1         0     34132         1         0
     34135         1         0     34138         1         0     34141         1         0
     34144         1         0     34147         1         0     34150         1         0
     34153         1         0     34156         1         0     34159         1         0
     34162         1         0     34165         1         0     34168         1         0
     34171         1         0     34174         1         0     34177         1         0
     34180         1         0     34183         1         0     34186         1         0
     34189         1         0     34192         1         0     34195         1         0
     34198         1         0     34201         1         0     34204         1         0
     34207         1         0     34210         1         0     34213         1         0
     34216         1         0     34219         1         0     34222         1         0
     34225         1         0     34228         1         0     34231         1         0
     34234         1         0     34237         1         0     34240         1         0
     34243         1         0     34246         1         0     34249         1         0
     34252         1         0     34255         1         0     34258         1         0
     34261         1         0     34264         1         0     34267         1         0
     34270         1         0     34273         1         0     34276         1         0
     34279         1         0     34282         1         0     34285         1         0
     34288         1         0     34291         1         0     34294         1         0
     34297         1         0     34300         1         0     34303         1         0
     34306         1         0     34309         1         0     34312         1         0
     34315         1         0     34318         1         0     34321         1         0
     34324         1         0     34327         1         0     34330         1         0
     34333         1         0     34336         1         0     34339         1         0
     34342         1         0     34345         1         0     34348         1         0
     34351         1         0     34354         1         0     34357         1         0
     34360         1         0     34363         1         0     34366         1         0
     34369         1         0     34372         1         0     34375         1         0
     34378         1         0     34381         1         0     34384         1         0
     34387         1         0     34390         1         0     34393         1         0
     34396         1         0     34399         1         0     34402         1         0
     34405         1         0     34408         1         0     34411         1         0
     34414         1         0     34417         1         0     34420         1         0
     34423         1         0     34426         1         0     34429         1         0
     34432         1         0     34435         1         0     34438         1         0
     34441         1         0     34444         1         0     34447         1         0
     34450         1         0     34453         1         0     34456         1         0
     34459         1         0     34462         1         0     34465         1         0
     34468         1         0     34471         1         0     34474         1         0
     34477         1         0     34480         1         0     34483         1         0
     34486         1         0     34489         1         0     34492         1         0
     34495         1         0     34498         1         0     34501         1         0
     34504         1         0     34507         1         0     34510         1         0
     34513         1         0     34516         1         0     34519         1         0
     34522         1         0     34525         1         0     34528         1         0
     34531         1         0     34534         1         0     34537         1         0
     34540         1         0     34543         1         0     34546         1         0
     34549         1         0     34552         1         0     34555         1         0
     34558         1         0     34561         1         0     34564         1         0
     34567         1         0     34570         1         0     34573         1         0
     34576         1         0     34579         1         0     34582         1         0
     34585         1         0     34588         1         0     34591         1         0
     34594         1         0     34597         1         0     34600         1         0
     34603         1         0     34606         1         0     34609         1         0
     34612         1         0     34615         1         0     34618         1         0
     34621         1         0     34624         1         0     34627         1         0
     34630         1         0     34633         1         0     34636         1         0
     34639         1         0     34642         1         0     34645         1         0
     34648         1         0     34651         1         0     34654         1         0
     34657         1         0     34660         1         0     34663         1         0
     34666         1         0     34669         1         0     34672         1         0
     34675         1         0     34678         1         0     34681         1         0
     34684         1         0     34687         1         0     34690         1         0
     34693         1         0     34696         1         0     34699         1         0
     34702         1         0     34705         1         0     34708         1         0
     34711         1         0     34714         1         0     34717         1         0
     34720         1         0     34723         1         0     34726         1         0
     34729         1         0     34732         1         0     34735         1         0
     34738         1         0     34741         1         0     34744         1         0
     34747         1         0     34750         1         0     34753         1         0
     34756         1         0     34759         1         0     34762         1         0
     34765         1         0     34768         1         0     34771         1         0
     34774         1         0     34777         1         0     34780         1         0
     34783         1         0     34786         1         0     34789         1         0
     34792         1         0     34795         1         0     34798         1         0
     34801         1         0     34804         1         0     34807         1         0
     34810         1         0     34813         1         0     34816         1         0
     34819         1         0     34822         1         0     34825         1         0
     34828         1         0     34831         1         0     34834         1         0
     34837         1         0     34840         1         0     34843         1         0
     34846         1         0     34849         1         0     34852         1         0
     34855         1         0     34858         1         0     34861         1         0
     34864         1         0     34867         1         0     34870         1         0
     34873         1         0     34876         1         0     34879         1         0
     34882         1         0     34885         1         0     34888         1         0
     34891         1         0     34894         1         0     34897         1         0
     34900         1         0     34903         1         0     34906         1         0
     34909         1         0     34912         1         0     34915         1         0
     34918         1         0     34921         1         0     34924         1         0
     34927         1         0     34930         1         0     34933         1         0
     34936         1         0     34939         1         0     34942         1         0
     34945         1         0     34948         1         0     34951         1         0
     34954         1         0     34957         1         0     34960         1         0
     34963         1         0     34966         1         0     34969         1         0
     34972         1         0     34975         1         0     34978         1         0
     34981         1         0     34984         1         0     34987         1         0
     34990         1         0     34993         1         0     34996         1         0
     34999         1         0     35002         1         0     35005         1         0
     35008         1         0     35011         1         0     35014         1         0
     35017         1         0     35020         1         0     35023         1         0
     35026         1         0     35029         1         0     35032         1         0
     35035         1         0     35038         1         0     35041         1         0
     35044         1         0     35047         1         0     35050         1         0
     35053         1         0     35056         1         0     35059         1         0
     35062         1         0     35065         1         0     35068         1         0
     35071         1         0     35074         1         0     35077         1         0
     35080         1         0     35083         1         0     35086         1         0
     35089         1         0     35092         1         0     35095         1         0
     35098         1         0     35101         1         0     35104         1         0
     35107         1         0     35110         1         0     35113         1         0
     35116         1         0     35119         1         0     35122         1         0
     35125         1         0     35128         1         0     35131         1         0
     35134         1         0     35137         1         0     35140         1         0
     35143         1         0     35146         1         0     35149         1         0
     35152         1         0     35155         1         0     35158         1         0
     35161         1         0     35164         1         0     35167         1         0
     35170         1         0     35173         1         0     35176         1         0
     35179         1         0     35182         1         0     35185         1         0
     35188         1         0     35191         1         0     35194         1         0
     35197         1         0     35200         2         0     35201         2         0
     35202         2         0     35203         2         0     35204         2         0
     35205         2         0     35206         2         0     35207         2         0
     35208         2         0     35209         2         0     35210         2         0
     35211         2         0     35212         2         0     35213         2         0
     35214         2         0     35215         2         0     35216         2         0
     35217         2         0     35218         2         0     35219         2         0
     35220         2         0     35221         2         0     35222         2         0
     35223         2         0     35224         2         0     35225         2         0
     35226         2         0     35227         2         0     35228         2         0
     35229         2         0     35230         2         0     35231         2         0
     35232         2         0     35233         2         0     35234         2         0
     35235         2         0     35236         2         0     35237         2         0
     35238         2         0     35239         2         0     35240         2         0
     35241         2         0     35242         2         0     35243         2         0
     35244         2         0     35245         2         0     35246         2         0
     35247         2         0     35248         2         0     35249         2         0
     35250         2         0     35251         2         0     35252         2         0

         0         0 !NUMLP NUMLPH

         4 !NCRTERM: cross-terms
        15        17        19        29        17        19        29        31
        29        31        33        53        31        33        53        55
        53        55        59        67        55        59        67        69
        67        69        71        81        69        71        81        83

      5955 !AUTOGEN
         0         0         0         0         0         0         0         0
         0         0         0         0         0         0         0         0
         0         0         0         0         0         0         0         0
         0         0         0         0         0         0         0         0
         0         0         0         0         0         0         0         0
         0         0         0         0         0         0         0         0
         0         0         0         0         0         0         0         0
         0         0         0         0         0         0         0         0
         0         0         0         0         0         0         0         0
         0         0         0         0         0         0         0         0
         0         0         0         0         0         0         0         0
         0         0         0         0         0         0         0         0
         0         0         0         0         0         0         0         0
         0         0         0         0         0         0         0         0
         0         0         0         0         0         0         0         0
         0         0         0         0         0         0         0         0
         0         0         0         0         0         0         0         0
         0         0         0         0         0         0         0         0
         0         0         0         0         0         0         0         0
         0         0         0         0         0         0         0         0
         0         0         0         0         0         0         0         0
         0         0         0         0         0         0         0         0
         0         0         0         0         0         0         0         0
         0         0         0         0         0         0         0         0
         0         0         0         0         0         0         0         0
         0         0         0         0         0         0         0         0
         0         0         0         0         0         0         0         0
         0         0         0         0         0         0         0         0
         0         0         0         0         0         0         0         0
         0         0         0         0         0         0         0         0
         0         0         0         0         0         0         0         0
         0         0         0         0         0         0         0         0
         0         0         0         0         0         0         0         0
         0         0         0         0         0         0         0         0
         0         0         0         0         0         0         0         0
         0         0         0         0         0         0         0         0
         0         0         0         0         0         0         0         0
         0         0         0         0         0         0         0         0
         0         0         0         0         0         0         0         0
         0         0         0         0         0         0         0         0
         0         0         0         0         0         0         0         0
         0         0         0         0         0         0         0         0
         0         0         0         0         0         0         0         0
         0         0         0         0         0         0         0         0
         0         0         0         0         0         0         0         0
         0         0         0         0         0         0         0         0
         0         0         0         0         0         0         0         0
         0         0         0         0         0         0         0         0
         0         0         0         0         0         0         0         0
         0         0         0         0         0         0         0         0
         0         0         0         0         0         0         0         0
         0         0         0         0         0         0         0         0
         0         0         0         0         0         0         0         0
         0         0         0         0         0         0         0         0
         0         0         0         0         0         0         0         0
         0         0         0         0         0         0         0         0
         0         0         0         0         0         0         0         0
         0         0         0         0         0         0         0         0
         0         0         0         0         0         0         0         0
         0         0         0         0         0         0         0         0
         0         0         0         0         0         0         0         0
         0         0         0         0         0         0         0         0
         0         0         0         0         0         0         0         0
         0         0         0         0         0         0         0         0
         0         0         0         0         0         0         0         0
         0         0         0         0         0         0         0         0
         0         0         0         0         0         0         0         0
         0         0         0         0         0         0         0         0
         0         0         0         0         0         0         0         0
         0         0         0         0         0         0         0         0
         0         0         0         0         0         0         0         0
         0         0         0         0         0         0         0         0
         0         0         0         0         0         0         0         0
         0         0         0         0         0         0         0         0
         0         0         0         0         0         0         0         0
         0         0         0         0         0         0         0         0
         0         0         0         0         0         0         0         0
         0         0         0         0         0         0         0         0
         0         0         0         0         0         0         0         0
         0         0         0         0         0         0         0         0
         0         0         0         0         0         0         0         0
         0         0         0         0         0         0         0         0
         0         0         0         0         0         0         0         0
         0         0         0         0         0         0         0         0
         0         0         0         0         0         0         0         0
         0         0         0         0         0         0         0         0
         0         0         0         0         0         0         0         0
         0         0         0         0         0         0         0         0
         0         0         0         0         0         0         0         0
         0         0         0         0         0         0         0         0
         0         0         0         0         0         0         0         0
         0         0         0         0         0         0         0         0
         0         0         0         0         0         0         0         0
         0         0         0         0         0         0         0         0
         0         0         0         0         0         0         0         0
         0         0         0         0         0         0         0         0
         0         0         0         0         0         0         0         0
         0         0         0         0         0         0         0         0
         0         0         0         0         0         0         0         0
         0         0         0         0         0         0         0         0
         0         0         0         0         0         0         0         0
         0         0         0         0         0         0         0         0
         0         0         0         0         0         0         0         0
         0         0         0         0         0         0         0         0
         0         0         0         0         0         0         0         0
         0         0         0         0         0         0         0         0
         0         0         0         0         0         0         0         0
         0         0         0         0         0         0         0         0
         0         0         0         0         0         0         0         0
         0         0         0         0         0         0         0         0
         0         0         0         0         0         0         0         0
         0         0         0         0         0         0         0         0
         0         0         0         0         0         0         0         0
         0         0         0         0         0         0         0         0
         0         0         0         0         0         0         0         0
         0         0         0         0         0         0         0         0
         0         0         0         0         0         0         0         0
         0         0         0         0         0         0         0         0
         0         0         0         0         0         0         0         0
         0         0         0         0         0         0         0         0
         0         0         0         0         0         0         0         0
         0         0         0         0         0         0         0         0
         0         0         0         0         0         0         0         0
         0         0         0         0         0         0         0         0
         0         0         0         0         0         0         0         0
         0         0         0         0         0         0         0         0
         0         0         0         0         0         0         0         0
         0         0         0         0         0         0         0         0
         0         0         0         0         0         0         0         0
         0         0         0         0         0         0         0         0
         0         0         0         0         0         0         0         0
         0         0         0         0         0         0         0         0
         0         0         0         0         0         0         0         0
         0         0         0         0         0         0         0         0
         0         0         0         0         0         0         0         0
         0         0         0         0         0         0         0         0
         0         0         0         0         0         0         0         0
         0         0         0         0         0         0         0         0
         0         0         0         0         0         0         0         0
         0         0         0         0         0         0         0         0
         0         0         0         0         0         0         0         0
         0         0         0         0         0         0         0         0
         0         0         0         0         0         0         0         0
         0         0         0         0         0         0         0         0
         0         0         0         0         0         0         0         0
         0         0         0         0         0         0         0         0
         0         0         0         0         0         0         0         0
         0         0         0         0         0         0         0         0
         0         0         0         0         0         0         0         0
         0         0         0         0         0         0         0         0
         0         0         0         0         0         0         0         0
         0         0         0         0         0         0         0         0
         0         0         0         0         0         0         0         0
         0         0         0         0         0         0         0         0
         0         0         0         0         0         0         0         0
         0         0         0         0         0         0         0         0
         0         0         0         0         0         0         0         0
         0         0         0         0         0         0         0         0
         0         0         0         0         0         0         0         0
         0         0         0         0         0         0         0         0
         0         0         0         0         0         0         0         0
         0         0         0         0         0         0         0         0
         0         0         0         0         0         0         0         0
         0         0         0         0         0         0         0         0
         0         0         0         0         0         0         0         0
         0         0         0         0         0         0         0         0
         0         0         0         0         0         0         0         0
         0         0         0         0         0         0         0         0
         0         0         0         0         0         0         0         0
         0         0         0         0         0         0         0         0
         0         0         0         0         0         0         0         0
         0         0         0         0         0         0         0         0
         0         0         0         0         0         0         0         0
         0         0         0         0         0         0         0         0
         0         0         0         0         0         0         0         0
         0         0         0         0         0         0         0         0
         0         0         0         0         0         0         0         0
         0         0         0         0         0         0         0         0
         0         0         0         0         0         0         0         0
         0         0         0         0         0         0         0         0
         0         0         0         0         0         0         0         0
         0         0         0         0         0         0         0         0
         0         0         0         0         0         0         0         0
         0         0         0         0         0         0         0         0
         0         0         0         0         0         0         0         0
         0         0         0         0         0         0         0         0
         0         0         0         0         0         0         0         0
         0         0         0         0         0         0         0         0
         0         0         0         0         0         0         0         0
         0         0         0         0         0         0         0         0
         0         0         0         0         0         0         0         0
         0         0         0         0         0         0         0         0
         0         0         0         0         0         0         0         0
         0         0         0         0         0         0         0         0
         0         0         0         0         0         0         0         0
         0         0         0         0         0         0         0         0
         0         0         0         0         0         0         0         0
         0         0         0         0         0         0         0         0
         0         0         0         0         0         0         0         0
         0         0         0         0         0         0         0         0
         0         0         0         0         0         0         0         0
         0         0         0         0         0         0         0         0
         0         0         0         0         0         0         0         0
         0         0         0         0         0         0         0         0
         0         0         0         0         0         0         0         0
         0         0         0         0         0         0         0         0
         0         0         0         0         0         0         0         0
         0         0         0         0         0         0         0         0
         0         0         0         0         0         0         0         0
         0         0         0         0         0         0         0         0
         0         0         0         0         0         0         0         0
         0         0         0         0         0         0         0         0
         0         0         0         0         0         0         0         0
         0         0         0         0         0         0         0         0
         0         0         0         0         0         0         0         0
         0         0         0         0         0         0         0         0
         0         0         0         0         0         0         0         0
         0         0         0         0         0         0         0         0
         0         0         0         0         0         0         0         0
         0         0         0         0         0         0         0         0
         0         0         0         0         0         0         0         0
         0         0         0         0         0         0         0         0
         0         0         0         0         0         0         0         0
         0         0         0         0         0         0         0         0
         0         0         0         0         0         0         0         0
         0         0         0         0         0         0         0         0
         0         0         0         0         0         0         0         0
         0         0         0         0         0         0         0         0
         0         0         0         0         0         0         0         0
         0         0         0         0         0         0         0         0
         0         0         0         0         0         0         0         0
         0         0         0         0         0         0         0         0
         0         0         0         0         0         0         0         0
         0         0         0         0         0         0         0         0
         0         0         0         0         0         0         0         0
         0         0         0         0         0         0         0         0
         0         0         0         0         0         0         0         0
         0         0         0         0         0         0         0         0
         0         0         0         0         0         0         0         0
         0         0         0         0         0         0         0         0
         0         0         0         0         0         0         0         0
         0         0         0         0         0         0         0         0
         0         0         0         0         0         0         0         0
         0         0         0         0         0         0         0         0
         0         0         0         0         0         0         0         0
         0         0         0         0         0         0         0         0
         0         0         0         0         0         0         0         0
         0         0         0         0         0         0         0         0
         0         0         0         0         0         0         0         0
         0         0         0         0         0         0         0         0
         0         0         0         0         0         0         0         0
         0         0         0         0         0         0         0         0
         0         0         0         0         0         0         0         0
         0         0         0         0         0         0         0         0
         0         0         0         0         0         0         0         0
         0         0         0         0         0         0         0         0
         0         0         0         0         0         0         0         0
         0         0         0         0         0         0         0         0
         0         0         0         0         0         0         0         0
         0         0         0         0         0         0         0         0
         0         0         0         0         0         0         0         0
         0         0         0         0         0         0         0         0
         0         0         0         0         0         0         0         0
         0         0         0         0         0         0         0         0
         0         0         0         0         0         0         0         0
         0         0         0         0         0         0         0         0
         0         0         0         0         0         0         0         0
         0         0         0         0         0         0         0         0
         0         0         0         0         0         0         0         0
         0         0         0         0         0         0         0         0
         0         0         0         0         0         0         0         0
         0         0         0         0         0         0         0         0
         0         0         0         0         0         0         0         0
         0         0         0         0         0         0         0         0
         0         0         0         0         0         0         0         0
         0         0         0         0         0         0         0         0
         0         0         0         0         0         0         0         0
         0         0         0         0         0         0         0         0
         0         0         0         0         0         0         0         0
         0         0         0         0         0         0         0         0
         0         0         0         0         0         0         0         0
         0         0         0         0         0         0         0         0
         0         0         0         0         0         0         0         0
         0         0         0         0         0         0         0         0
         0         0         0         0         0         0         0         0
         0         0         0         0         0         0         0         0
         0         0         0         0         0         0         0         0
         0         0         0         0         0         0         0         0
         0         0         0         0         0         0         0         0
         0         0         0         0         0         0         0         0
         0         0         0         0         0         0         0         0
         0         0         0         0         0         0         0         0
         0         0         0         0         0         0         0         0
         0         0         0         0         0         0         0         0
         0         0         0         0         0         0         0         0
         0         0         0         0         0         0         0         0
         0         0         0         0         0         0         0         0
         0         0         0         0         0         0         0         0
         0         0         0         0         0         0         0         0
         0         0         0         0         0         0         0         0
         0         0         0         0         0         0         0         0
         0         0         0         0         0         0         0         0
         0         0         0         0         0         0         0         0
         0         0         0         0         0         0         0         0
         0         0         0         0         0         0         0         0
         0         0         0         0         0         0         0         0
         0         0         0         0         0         0         0         0
         0         0         0         0         0         0         0         0
         0         0         0         0         0         0         0         0
         0         0         0         0         0         0         0         0
         0         0         0         0         0         0         0         0
         0         0         0         0         0         0         0         0
         0         0         0         0         0         0         0         0
         0         0         0         0         0         0         0         0
         0         0         0         0         0         0         0         0
         0         0         0         0         0         0         0         0
         0         0         0         0         0         0         0         0
         0         0         0         0         0         0         0         0
         0         0         0         0         0         0         0         0
         0         0         0         0         0         0         0         0
         0         0         0         0         0         0         0         0
         0         0         0         0         0         0         0         0
         0         0         0         0         0         0         0         0
         0         0         0         0         0         0         0         0
         0         0         0         0         0         0         0         0
         0         0         0         0         0         0         0         0
         0         0         0         0         0         0         0         0
         0         0         0         0         0         0         0         0
         0         0         0         0         0         0         0         0
         0         0         0         0         0         0         0         0
         0         0         0         0         0         0         0         0
         0         0         0         0         0         0         0         0
         0         0         0         0         0         0         0         0
         0         0         0         0         0         0         0         0
         0         0         0         0         0         0         0         0
         0         0         0         0         0         0         0         0
         0         0         0         0         0         0         0         0
         0         0         0         0         0         0         0         0
         0         0         0         0         0         0         0         0
         0         0         0         0         0         0         0         0
         0         0         0         0         0         0         0         0
         0         0         0         0         0         0         0         0
         0         0         0         0         0         0         0         0
         0         0         0         0         0         0         0         0
         0         0         0         0         0         0         0         0
         0         0         0         0         0         0         0         0
         0         0         0         0         0         0         0         0
         0         0         0         0         0         0         0         0
         0         0         0         0         0         0         0         0
         0         0         0         0         0         0         0         0
         0         0         0         0         0         0         0         0
         0         0         0         0         0         0         0         0
         0         0         0         0         0         0         0         0
         0         0         0         0         0         0         0         0
         0         0         0         0         0         0         0         0
         0         0         0         0         0         0         0         0
         0         0         0         0         0         0         0         0
         0         0         0         0         0         0         0         0
         0         0         0         0         0         0         0         0
         0         0         0         0         0         0         0         0
         0         0         0         0         0         0         0         0
         0         0         0         0         0         0         0         0
         0         0         0         0         0         0         0         0
         0         0         0         0         0         0         0         0
         0         0         0         0         0         0         0         0
         0         0         0         0         0         0         0         0
         0         0         0         0         0         0         0         0
         0         0         0         0         0         0         0         0
         0         0         0         0         0         0         0         0
         0         0         0         0         0         0         0         0
         0         0         0         0         0         0         0         0
         0         0         0         0         0         0         0         0
         0         0         0         0         0         0         0         0
         0         0         0         0         0         0         0         0
         0         0         0         0         0         0         0         0
         0         0         0         0         0         0         0         0
         0         0         0         0         0         0         0         0
         0         0         0         0         0         0         0         0
         0         0         0         0         0         0         0         0
         0         0         0         0         0         0         0         0
         0         0         0         0         0         0         0         0
         0         0         0         0         0         0         0         0
         0         0         0         0         0         0         0         0
         0         0         0         0         0         0         0         0
         0         0         0         0         0         0         0         0
         0         0         0         0         0         0         0         0
         0         0         0         0         0         0         0         0
         0         0         0         0         0         0         0         0
         0         0         0         0         0         0         0         0
         0         0         0         0         0         0         0         0
         0         0         0         0         0         0         0         0
         0         0         0         0         0         0         0         0
         0         0         0         0         0         0         0         0
         0         0         0         0         0         0         0         0
         0         0         0         0         0         0         0         0
         0         0         0         0         0         0         0         0
         0         0         0         0         0         0         0         0
         0         0         0         0         0         0         0         0
         0         0         0         0         0         0         0         0
         0         0         0         0         0         0         0         0
         0         0         0         0         0         0         0         0
         0         0         0         0         0         0         0         0
         0         0         0         0         0         0         0         0
         0         0         0         0         0         0         0         0
         0         0         0         0         0         0         0         0
         0         0         0         0         0         0         0         0
         0         0         0         0         0         0         0         0
         0         0         0         0         0         0         0         0
         0         0         0         0         0         0         0         0
         0         0         0         0         0         0         0         0
         0         0         0         0         0         0         0         0
         0         0         0         0         0         0         0         0
         0         0         0         0         0         0         0         0
         0         0         0         0         0         0         0         0
         0         0         0         0         0         0         0         0
         0         0         0         0         0         0         0         0
         0         0         0         0         0         0         0         0
         0         0         0         0         0         0         0         0
         0         0         0         0         0         0         0         0
         0         0         0         0         0         0         0         0
         0         0         0         0         0         0         0         0
         0         0         0         0         0         0         0         0
         0         0         0         0         0         0         0         0
         0         0         0         0         0         0         0         0
         0         0         0         0         0         0         0         0
         0         0         0         0         0         0         0         0
         0         0         0         0         0         0         0         0
         0         0         0         0         0         0         0         0
         0         0         0         0         0         0         0         0
         0         0         0         0         0         0         0         0
         0         0         0         0         0         0         0         0
         0         0         0         0         0         0         0         0
         0         0         0         0         0         0         0         0
         0         0         0         0         0         0         0         0
         0         0         0         0         0         0         0         0
         0         0         0         0         0         0         0         0
         0         0         0         0         0         0         0         0
         0         0         0         0         0         0         0         0
         0         0         0         0         0         0         0         0
         0         0         0         0         0         0         0         0
         0         0         0         0         0         0         0         0
         0         0         0         0         0         0         0         0
         0         0         0         0         0         0         0         0
         0         0         0         0         0         0         0         0
         0         0         0         0         0         0         0         0
         0         0         0         0         0         0         0         0
         0         0         0         0         0         0         0         0
         0         0         0         0         0         0         0         0
         0         0         0         0         0         0         0         0
         0         0         0         0         0         0         0         0
         0         0         0         0         0         0         0         0
         0         0         0         0         0         0         0         0
         0         0         0         0         0         0         0         0
         0         0         0         0         0         0         0         0
         0         0         0         0         0         0         0         0
         0         0         0         0         0         0         0         0
         0         0         0         0         0         0         0         0
         0         0         0         0         0         0         0         0
         0         0         0         0         0         0         0         0
         0         0         0         0         0         0         0         0
         0         0         0         0         0         0         0         0
         0         0         0         0         0         0         0         0
         0         0         0         0         0         0         0         0
         0         0         0         0         0         0         0         0
         0         0         0         0         0         0         0         0
         0         0         0         0         0         0         0         0
         0         0         0         0         0         0         0         0
         0         0         0         0         0         0         0         0
         0         0         0         0         0         0         0         0
         0         0         0         0         0         0         0         0
         0         0         0         0         0         0         0         0
         0         0         0         0         0         0         0         0
         0         0         0         0         0         0         0         0
         0         0         0         0         0         0         0         0
         0         0         0         0         0         0         0         0
         0         0         0         0         0         0         0         0
         0         0         0         0         0         0         0         0
         0         0         0         0         0         0         0         0
         0         0         0         0         0         0         0         0
         0         0         0         0         0         0         0         0
         0         0         0         0         0         0         0         0
         0         0         0         0         0         0         0         0
         0         0         0         0         0         0         0         0
         0         0         0         0         0         0         0         0
         0         0         0         0         0         0         0         0
         0         0         0         0         0         0         0         0
         0         0         0         0         0         0         0         0
         0         0         0         0         0         0         0         0
         0         0         0         0         0         0         0         0
         0         0         0         0         0         0         0         0
         0         0         0         0         0         0         0         0
         0         0         0         0         0         0         0         0
         0         0         0         0         0         0         0         0
         0         0         0         0         0         0         0         0
         0         0         0         0         0         0         0         0
         0         0         0         0         0         0         0         0
         0         0         0         0         0         0         0         0
         0         0         0         0         0         0         0         0
         0         0         0         0         0         0         0         0
         0         0         0         0         0         0         0         0
         0         0         0         0         0         0         0         0
         0         0         0         0         0         0         0         0
         0         0         0         0         0         0         0         0
         0         0         0         0         0         0         0         0
         0         0         0         0         0         0         0         0
         0         0         0         0         0         0         0         0
         0         0         0         0         0         0         0         0
         0         0         0         0         0         0         0         0
         0         0         0         0         0         0         0         0
         0         0         0         0         0         0         0         0
         0         0         0         0         0         0         0         0
         0         0         0         0         0         0         0         0
         0         0         0         0         0         0         0         0
         0         0         0         0         0         0         0         0
         0         0         0         0         0         0         0         0
         0         0         0         0         0         0         0         0
         0         0         0         0         0         0         0         0
         0         0         0         0         0         0         0         0
         0         0         0         0         0         0         0         0
         0         0         0         0         0         0         0         0
         0         0         0         0         0         0         0         0
         0         0         0         0         0         0         0         0
         0         0         0         0         0         0         0         0
         0         0         0         0         0         0         0         0
         0         0         0         0         0         0         0         0
         0         0         0         0         0         0         0         0
         0         0         0         0         0         0         0         0
         0         0         0         0         0         0         0         0
         0         0         0         0         0         0         0         0
         0         0         0         0         0         0         0         0
         0         0         0         0         0         0         0         0
         0         0         0         0         0         0         0         0
         0         0         0         0         0         0         0         0
         0         0         0         0         0         0         0         0
         0         0         0         0         0         0         0         0
         0         0         0         0         0         0         0         0
         0         0         0         0         0         0         0         0
         0         0         0         0         0         0         0         0
         0         0         0         0         0         0         0         0
         0         0         0         0         0         0         0         0
         0         0         0         0         0         0         0         0
         0         0         0         0         0         0         0         0
         0         0         0         0         0         0         0         0
         0         0         0         0         0         0         0         0
         0         0         0         0         0         0         0         0
         0         0         0         0         0         0         0         0
         0         0         0         0         0         0         0         0
         0         0         0         0         0         0         0         0
         0         0         0         0         0         0         0         0
         0         0         0         0         0         0         0         0
         0         0         0         0         0         0         0         0
         0         0         0         0         0         0         0         0
         0         0         0         0         0         0         0         0
         0         0         0         0         0         0         0         0
         0         0         0         0         0         0         0         0
         0         0         0         0         0         0         0         0
         0         0         0         0         0         0         0         0
         0         0         0         0         0         0         0         0
         0         0         0         0         0         0         0         0
         0         0         0         0         0         0         0         0
         0         0         0         0         0         0         0         0
         0         0         0         0         0         0         0         0
         0         0         0         0         0         0         0         0
         0         0         0         0         0         0         0         0
         0         0         0         0         0         0         0         0
         0         0         0         0         0         0         0         0
         0         0         0         0         0         0         0         0
         0         0         0         0         0         0         0         0
         0         0         0         0         0         0         0         0
         0         0         0         0         0         0         0         0
         0         0         0         0         0         0         0         0
         0         0         0         0         0         0         0         0
         0         0         0         0         0         0         0         0
         0         0         0         0         0         0         0         0
         0         0         0         0         0         0         0         0
         0         0         0         0         0         0         0         0
         0         0         0         0         0         0         0         0
         0         0         0         0         0         0         0         0
         0         0         0         0         0         0         0         0
         0         0         0         0         0         0         0         0
         0         0         0         0         0         0         0         0
         0         0         0         0         0         0         0         0
         0         0         0         0         0         0         0         0
         0         0         0         0         0         0         0         0
         0         0         0         0         0         0         0         0
         0         0         0         0         0         0         0         0
         0         0         0         0         0         0         0         0
         0         0         0         0         0         0         0         0
         0         0         0         0         0         0         0         0
         0         0         0         0         0         0         0         0
         0         0         0         0         0         0         0         0
         0         0         0         0         0         0         0         0
         0         0         0         0         0         0         0         0
         0         0         0         0         0         0         0         0
         0         0         0         0         0         0         0         0
         0         0         0         0         0         0         0         0
         0         0         0         0         0         0         0         0
         0         0         0         0         0         0         0         0
         0         0         0         0         0         0         0         0
         0         0         0         0         0         0         0         0
         0         0         0         0         0         0         0         0
         0         0         0         0         0         0         0         0
         0         0         0         0         0         0         0         0
         0         0         0         0         0         0         0         0
         0         0         0         0         0         0         0         0
         0         0         0         0         0         0         0         0
         0         0         0         0         0         0         0         0
         0         0         0         0         0         0         0         0
         0         0         0         0         0         0         0         0
         0         0         0         0         0         0         0         0
         0         0         0         0         0         0         0         0
         0         0         0         0         0         0         0         0
         0         0         0         0         0         0         0         0
         0         0         0         0         0         0         0         0
         0         0         0         0         0         0         0         0
         0         0         0         0         0         0         0         0
         0         0         0         0         0         0         0         0
         0         0         0         0         0         0         0         0
         0         0         0         0         0         0         0         0
         0         0         0         0         0         0         0         0
         0         0         0         0         0         0         0         0
         0         0         0         0         0         0         0         0
         0         0         0         0         0         0         0         0
         0         0         0         0         0         0         0         0
         0         0         0         0         0         0         0         0
         0         0         0         0         0         0         0         0
         0         0         0         0         0         0         0         0
         0         0         0         0         0         0         0         0
         0         0         0         0         0         0         0         0
         0         0         0         0         0         0         0         0
         0         0         0         0         0         0         0         0
         0         0         0         0         0         0         0         0
         0         0         0         0         0         0         0         0
         0         0         0         0         0         0         0         0
         0         0         0         0         0         0         0         0
         0         0         0         0         0         0         0         0
         0         0         0         0         0         0         0         0
         0         0         0         0         0         0         0         0
         0         0         0         0         0         0         0         0
         0         0         0         0         0         0         0         0
         0         0         0         0         0         0         0         0
         0         0         0         0         0         0         0         0
         0         0         0         0         0         0         0         0
         0         0         0         0         0         0         0         0
         0         0         0         0         0         0         0         0
         0         0         0         0         0         0         0         0
         0         0         0         0         0         0         0         0
         0         0         0         0         0         0         0         0
         0         0         0         0         0         0         0         0
         0         0         0         0         0         0         0         0
         0         0         0         0         0         0         0         0
         0         0         0         0         0         0         0         0
         0         0         0         0         0         0         0         0
         0         0         0         0         0         0         0         0
         0         0         0         0         0         0         0         0
         0         0         0         0         0         0         0         0
         0         0         0         0         0         0         0         0
         0         0         0         0         0         0         0         0
         0         0         0         0         0         0         0         0
         0         0         0         0         0         0         0         0
         0         0         0         0         0         0         0         0
         0         0         0         0         0         0         0         0
         0         0         0         0         0         0         0         0
         0         0         0         0         0         0         0         0
         0         0         0         0         0         0         0         0
         0         0         0         0         0         0         0         0
         0         0         0         0         0         0         0         0
         0         0         0         0         0         0         0         0
         0         0         0         0         0         0         0         0
         0         0         0         0         0         0         0         0
         0         0         0         0         0         0         0         0
         0         0         0         0         0         0         0         0
         0         0         0         0         0         0         0         0
         0         0         0         0         0         0         0         0
         0         0         0         0         0         0         0         0
         0         0         0         0         0         0         0         0
         0         0         0         0         0         0         0         0
         0         0         0         0         0         0         0         0
         0         0         0         0         0         0         0         0
         0         0         0         0         0         0         0         0
         0         0         0         0         0         0         0         0
         0         0         0         0         0         0         0         0
         0         0         0         0         0         0         0         0
         0         0         0         0         0         0         0         0
         0         0         0         0         0         0         0         0
         0         0         0         0         0         0         0         0
         0         0         0         0         0         0         0         0
         0         0         0         0         0         0         0         0
         0         0         0         0         0         0         0         0
         0         0         0         0         0         0         0         0
         0         0         0         0         0         0         0         0
         0         0         0         0         0         0         0         0
         0         0         0         0         0         0         0         0
         0         0         0         0         0         0         0         0
         0         0         0         0         0         0         0         0
         0         0         0         0         0         0         0         0
         0         0         0         0         0         0         0         0
         0         0         0         0         0         0         0         0
         0         0         0         0         0         0         0         0
         0         0         0         0         0         0         0         0
         0         0         0         0         0         0         0         0
         0         0         0         0         0         0         0         0
         0         0         0         0         0         0         0         0
         0         0         0         0         0         0         0         0
         0         0         0         0         0         0         0         0
         0         0         0         0         0         0         0         0
         0         0         0         0         0         0         0         0
         0         0         0         0         0         0         0         0
         0         0         0         0         0         0         0         0
         0         0         0         0         0         0         0         0
         0         0         0         0         0         0         0         0
         0         0         0         0         0         0         0         0
         0         0         0         0         0         0         0         0
         0         0         0         0         0         0         0         0
         0         0         0         0         0         0         0         0
         0         0         0         0         0         0         0         0
         0         0         0         0         0         0         0         0
         0         0         0         0         0         0         0         0
         0         0         0         0         0         0         0         0
         0         0         0         0         0         0         0         0
         0         0         0         0         0         0         0         0
         0         0         0         0         0         0         0         0
         0         0         0         0         0         0         0         0
         0         0         0         0         0         0         0         0
         0         0         0         0         0         0         0         0
         0         0         0         0         0         0         0         0
         0         0         0         0         0         0         0         0
         0         0         0         0         0         0         0         0
         0         0         0         0         0         0         0         0
         0         0         0         0         0         0         0         0
         0         0         0         0         0         0         0         0
         0         0         0         0         0         0         0         0
         0         0         0         0         0         0         0         0
         0         0         0         0         0         0         0         0
         0         0         0         0         0         0         0         0
         0         0         0         0         0         0         0         0
         0         0         0         0         0         0         0         0
         0         0         0         0         0         0         0         0
         0         0         0         0         0         0         0         0
         0         0         0         0         0         0         0         0
         0         0         0         0         0         0         0         0
         0         0         0         0         0         0         0         0
         0         0         0         0         0         0         0         0
         0         0         0         0         0         0         0         0
         0         0         0         0         0         0         0         0
         0         0         0         0         0         0         0         0
         0         0         0         0         0         0         0         0
         0         0         0         0         0         0         0         0
         0         0         0         0         0         0         0         0
         0         0         0         0         0         0         0         0
         0         0         0         0         0         0         0         0
         0         0         0         0         0         0         0         0
         0         0         0         0         0         0         0         0
         0         0         0         0         0         0         0         0
         0         0         0         0         0         0         0         0
         0         0         0         0         0         0         0         0
         0         0         0         0         0         0         0         0
         0         0         0         0         0         0         0         0
         0         0         0         0         0         0         0         0
         0         0         0         0         0         0         0         0
         0         0         0         0         0         0         0         0
         0         0         0         0         0         0         0         0
         0         0         0         0         0         0         0         0
         0         0         0         0         0         0         0         0
         0         0         0         0         0         0         0         0
         0         0         0         0         0         0         0         0
         0         0         0         0         0         0         0         0
         0         0         0         0         0         0         0         0
         0         0         0         0         0         0         0         0
         0         0         0         0         0         0         0         0
         0         0         0         0         0         0         0         0
         0         0         0         0         0         0         0         0
         0         0         0         0         0         0         0         0
         0         0         0         0         0         0         0         0
         0         0         0         0         0         0         0         0
         0         0         0         0         0         0         0         0
         0         0         0         0         0         0         0         0
         0         0         0         0         0         0         0         0
         0         0         0         0         0         0         0         0
         0         0         0         0         0         0         0         0
         0         0         0         0         0         0         0         0
         0         0         0         0         0         0         0         0
         0         0         0         0         0         0         0         0
         0         0         0         0         0         0         0         0
         0         0         0         0         0         0         0         0
         0         0         0         0         0         0         0         0
         0         0         0         0         0         0         0         0
         0         0         0         0         0         0         0         0
         0         0         0         0         0         0         0         0
         0         0         0         0         0         0         0         0
         0         0         0         0         0         0         0         0
         0         0         0         0         0         0         0         0
         0         0         0         0         0         0         0         0
         0         0         0         0         0         0         0         0
         0         0         0         0         0         0         0         0
         0         0         0         0         0         0         0         0
         0         0         0         0         0         0         0         0
         0         0         0         0         0         0         0         0
         0         0         0         0         0         0         0         0
         0         0         0         0         0         0         0         0
         0         0         0         0         0         0         0         0
         0         0         0         0         0         0         0         0
         0         0         0         0         0         0         0         0
         0         0         0         0         0         0         0         0
         0         0         0         0         0         0         0         0
         0         0         0         0         0         0         0         0
         0         0         0         0         0         0         0         0
         0         0         0         0         0         0         0         0
         0         0         0         0         0         0         0         0
         0         0         0         0         0         0         0         0
         0         0         0         0         0         0         0         0
         0         0         0         0         0         0         0         0
         0         0         0         0         0         0         0         0
         0         0         0         0         0         0         0         0
         0         0         0         0         0         0         0         0
         0         0         0         0         0         0         0         0
         0         0         0         0         0         0         0         0
         0         0         0         0         0         0         0         0
         0         0         0         0         0         0         0         0
         0         0         0         0         0         0         0         0
         0         0         0         0         0         0         0         0
         0         0         0         0         0         0         0         0
         0         0         0         0         0         0         0         0
         0         0         0         0         0         0         0         0
         0         0         0         0         0         0         0         0
         0         0         0         0         0         0         0         0
         0         0         0         0         0         0         0         0
         0         0         0         0         0         0         0         0
         0         0         0         0         0         0         0         0
         0         0         0         0         0         0         0         0
         0         0         0         0         0         0         0         0
         0         0         0         0         0         0         0         0
         0         0         0         0         0         0         0         0
         0         0         0         0         0         0         0         0
         0         0         0         0         0         0         0         0
         0         0         0         0         0         0         0         0
         0         0         0         0         0         0         0         0
         0         0         0         0         0         0         0         0
         0         0         0         0         0         0         0         0
         0         0         0         0         0         0         0         0
         0         0         0         0         0         0         0         0
         0         0         0         0         0         0         0         0
         0         0         0         0         0         0         0         0
         0         0         0         0         0         0         0         0
         0         0         0         0         0         0         0         0
         0         0         0         0         0         0         0         0
         0         0         0         0         0         0         0         0
         0         0         0         0         0         0         0         0
         0         0         0         0         0         0         0         0
         0         0         0         0         0         0         0         0
         0         0         0         0         0         0         0         0
         0         0         0         0         0         0         0         0
         0         0         0         0         0         0         0         0
         0         0         0         0         0         0         0         0
         0         0         0         0         0         0         0         0
         0         0         0         0         0         0         0         0
         0         0         0         0         0         0         0         0
         0         0         0         0         0         0         0         0
         0         0         0         0         0         0         0         0
         0         0         0         0         0         0         0         0
         0         0         0         0         0         0         0         0
         0         0         0         0         0         0         0         0
         0         0         0         0         0         0         0         0
         0         0         0         0         0         0         0         0
         0         0         0         0         0         0         0         0
         0         0         0         0         0         0         0         0
         0         0         0         0         0         0         0         0
         0         0         0         0         0         0         0         0
         0         0         0         0         0         0         0         0
         0         0         0         0         0         0         0         0
         0         0         0         0         0         0         0         0
         0         0         0         0         0         0         0         0
         0         0         0         0         0         0         0         0
         0         0         0         0         0         0         0         0
         0         0         0         0         0         0         0         0
         0         0         0         0         0         0         0         0
         0         0         0         0         0         0         0         0
         0         0         0         0         0         0         0         0
         0         0         0         0         0         0         0         0
         0         0         0         0         0         0         0         0
         0         0         0         0         0         0         0         0
         0         0         0         0         0         0         0         0
         0         0         0         0         0         0         0         0
         0         0         0         0         0         0         0         0
         0         0         0         0         0         0         0         0
         0         0         0         0         0         0         0         0
         0         0         0         0         0         0         0         0
         0         0         0         0         0         0         0         0
         0         0         0         0         0         0         0         0
         0         0         0         0         0         0         0         0
         0         0         0         0         0         0         0         0
         0         0         0         0         0         0         0         0
         0         0         0         0         0         0         0         0
         0         0         0         0         0         0         0         0
         0         0         0         0         0         0         0         0
         0         0         0         0         0         0         0         0
         0         0         0         0         0         0         0         0
         0         0         0         0         0         0         0         0
         0         0         0         0         0         0         0         0
         0         0         0         0         0         0         0         0
         0         0         0         0         0         0         0         0
         0         0         0         0         0         0         0         0
         0         0         0         0         0         0         0         0
         0         0         0         0         0         0         0         0
         0         0         0         0         0         0         0         0
         0         0         0         0         0         0         0         0
         0         0         0         0         0         0         0         0
         0         0         0         0         0         0         0         0
         0         0         0         0         0         0         0         0
         0         0         0         0         0         0         0         0
         0         0         0         0         0         0         0         0
         0         0         0         0         0         0         0         0
         0         0         0         0         0         0         0         0
         0         0         0         0         0         0         0         0
         0         0         0         0         0         0         0         0
         0         0         0         0         0         0         0         0
         0         0         0         0         0         0         0         0
         0         0         0         0         0         0         0         0
         0         0         0         0         0         0         0         0
         0         0         0         0         0         0         0         0
         0         0         0         0         0         0         0         0
         0         0         0         0         0         0         0         0
         0         0         0         0         0         0         0         0
         0         0         0         0         0         0         0         0
         0         0         0         0         0         0         0         0
         0         0         0         0         0         0         0         0
         0         0         0         0         0         0         0         0
         0         0         0         0         0         0         0         0
         0         0         0         0         0         0         0         0
         0         0         0         0         0         0         0         0
         0         0         0         0         0         0         0         0
         0         0         0         0         0         0         0         0
         0         0         0         0         0         0         0         0
         0         0         0         0         0         0         0         0
         0         0         0         0         0         0         0         0
         0         0         0         0         0         0         0         0
         0         0         0         0         0         0         0         0
         0         0         0         0         0         0         0         0
         0         0         0         0         0         0         0         0
         0         0         0         0         0         0         0         0
         0         0         0         0         0         0         0         0
         0         0         0         0         0         0         0         0
         0         0         0         0         0         0         0         0
         0         0         0         0         0         0         0         0
         0         0         0         0         0         0         0         0
         0         0         0         0         0         0         0         0
         0         0         0         0         0         0         0         0
         0         0         0         0         0         0         0         0
         0         0         0         0         0         0         0         0
         0         0         0         0         0         0         0         0
         0         0         0         0         0         0         0         0
         0         0         0         0         0         0         0         0
         0         0         0         0         0         0         0         0
         0         0         0         0         0         0         0         0
         0         0         0         0         0         0         0         0
         0         0         0         0         0         0         0         0
         0         0         0         0         0         0         0         0
         0         0         0         0         0         0         0         0
         0         0         0         0         0         0         0         0
         0         0         0         0         0         0         0         0
         0         0         0         0         0         0         0         0
         0         0         0         0         0         0         0         0
         0         0         0         0         0         0         0         0
         0         0         0         0         0         0         0         0
         0         0         0         0         0         0         0         0
         0         0         0         0         0         0         0         0
         0         0         0         0         0         0         0         0
         0         0         0         0         0         0         0         0
         0         0         0         0         0         0         0         0
         0         0         0         0         0         0         0         0
         0         0         0         0         0         0         0         0
         0         0         0         0         0         0         0         0
         0         0         0         0         0         0         0         0
         0         0         0         0         0         0         0         0
         0         0         0         0         0         0         0         0
         0         0         0         0         0         0         0         0
         0         0         0         0         0         0         0         0
         0         0         0         0         0         0         0         0
         0         0         0         0         0         0         0         0
         0         0         0         0         0         0         0         0
         0         0         0         0         0         0         0         0
         0         0         0         0         0         0         0         0
         0         0         0         0         0         0         0         0
         0         0         0         0         0         0         0         0
         0         0         0         0         0         0         0         0
         0         0         0         0         0         0         0         0
         0         0         0         0         0         0         0         0
         0         0         0         0         0         0         0         0
         0         0         0         0         0         0         0         0
         0         0         0         0         0         0         0         0
         0         0         0         0         0         0         0         0
         0         0         0         0         0         0         0         0
         0         0         0         0         0         0         0         0
         0         0         0         0         0         0         0         0
         0         0         0         0         0         0         0         0
         0         0         0         0         0         0         0         0
         0         0         0         0         0         0         0         0
         0         0         0         0         0         0         0         0
         0         0         0         0         0         0         0         0
         0         0         0         0         0         0         0         0
         0         0         0         0         0         0         0         0
         0         0         0         0         0         0         0         0
         0         0         0         0         0         0         0         0
         0         0         0         0         0         0         0         0
         0         0         0         0         0         0         0         0
         0         0         0         0         0         0         0         0
         0         0         0         0         0         0         0         0
         0         0         0         0         0         0         0         0
         0         0         0         0         0         0         0         0
         0         0         0         0         0         0         0         0
         0         0         0         0         0         0         0         0
         0         0         0         0         0         0         0         0
         0         0         0         0         0         0         0         0
         0         0         0         0         0         0         0         0
         0         0         0         0         0         0         0         0
         0         0         0         0         0         0         0         0
         0         0         0         0         0         0         0         0
         0         0         0         0         0         0         0         0
         0         0         0         0         0         0         0         0
         0         0         0         0         0         0         0         0
         0         0         0         0         0         0         0         0
         0         0         0         0         0         0         0         0
         0         0         0         0         0         0         0         0
         0         0         0         0         0         0         0         0
         0         0         0         0         0         0         0         0
         0         0         0         0         0         0         0         0
         0         0         0         0         0         0         0         0
         0         0         0         0         0         0         0         0
         0         0         0         0         0         0         0         0
         0         0         0         0         0         0         0         0
         0         0         0         0         0         0         0         0
         0         0         0         0         0         0         0         0
         0         0         0         0         0         0         0         0
         0         0         0         0         0         0         0         0
         0         0         0         0         0         0         0         0
         0         0         0         0         0         0         0         0
         0         0         0         0         0         0         0         0
         0         0         0         0         0         0         0         0
         0         0         0         0         0         0         0         0
         0         0         0         0         0         0         0         0
         0         0         0         0         0         0         0         0
         0         0         0         0         0         0         0         0
         0         0         0         0         0         0         0         0
         0         0         0         0         0         0         0         0
         0         0         0         0         0         0         0         0
         0         0         0         0         0         0         0         0
         0         0         0         0         0         0         0         0
         0         0         0         0         0         0         0         0
         0         0         0         0         0         0         0         0
         0         0         0         0         0         0         0         0
         0         0         0         0         0         0         0         0
         0         0         0         0         0         0         0         0
         0         0         0         0         0         0         0         0
         0         0         0         0         0         0         0         0
         0         0         0         0         0         0         0         0
         0         0         0         0         0         0         0         0
         0         0         0         0         0         0         0         0
         0         0         0         0         0         0         0         0
         0         0         0         0         0         0         0         0
         0         0         0         0         0         0         0         0
         0         0         0         0         0         0         0         0
         0         0         0         0         0         0         0         0
         0         0         0         0         0         0         0         0
         0         0         0         0         0         0         0         0
         0         0         0         0         0         0         0         0
         0         0         0         0         0         0         0         0
         0         0         0         0         0         0         0         0
         0         0         0         0         0         0         0         0
         0         0         0         0         0         0         0         0
         0         0         0         0         0         0         0         0
         0         0         0         0         0         0         0         0
         0         0         0         0         0         0         0         0
         0         0         0         0         0         0         0         0
         0         0         0         0         0         0         0         0
         0         0         0         0         0         0         0         0
         0         0         0         0         0         0         0         0
         0         0         0         0         0         0         0         0
         0         0         0         0         0         0         0         0
         0         0         0         0         0         0         0         0
         0         0         0         0         0         0         0         0
         0         0         0         0         0         0         0         0
         0         0         0         0         0         0         0         0
         0         0         0         0         0         0         0         0
         0         0         0         0         0         0         0         0
         0         0         0         0         0         0         0         0
         0         0         0         0         0         0         0         0
         0         0         0         0         0         0         0         0
         0         0         0         0         0         0         0         0
         0         0         0         0         0         0         0         0
         0         0         0         0         0         0         0         0
         0         0         0         0         0         0         0         0
         0         0         0         0         0         0         0         0
         0         0         0         0         0         0         0         0
         0         0         0         0         0         0         0         0
         0         0         0         0         0         0         0         0
         0         0         0         0         0         0         0         0
         0         0         0         0         0         0         0         0
         0         0         0         0         0         0         0         0
         0         0         0         0         0         0         0         0
         0         0         0         0         0         0         0         0
         0         0         0         0         0         0         0         0
         0         0         0         0         0         0         0         0
         0         0         0         0         0         0         0         0
         0         0         0         0         0         0         0         0
         0         0         0         0         0         0         0         0
         0         0         0         0         0         0         0         0
         0         0         0         0         0         0         0         0
         0         0         0         0         0         0         0         0
         0         0         0         0         0         0         0         0
         0         0         0         0         0         0         0         0
         0         0         0         0         0         0         0         0
         0         0         0         0         0         0         0         0
         0         0         0         0         0         0         0         0
         0         0         0         0         0         0         0         0
         0         0         0         0         0         0         0         0
         0         0         0         0         0         0         0         0
         0         0         0         0         0         0         0         0
         0         0         0         0         0         0         0         0
         0         0         0         0         0         0         0         0
         0         0         0         0         0         0         0         0
         0         0         0         0         0         0         0         0
         0         0         0         0         0         0         0         0
         0         0         0         0         0         0         0         0
         0         0         0         0         0         0         0         0
         0         0         0         0         0         0         0         0
         0         0         0         0         0         0         0         0
         0         0         0         0         0         0         0         0
         0         0         0         0         0         0         0         0
         0         0         0         0         0         0         0         0
         0         0         0         0         0         0         0         0
         0         0         0         0         0         0         0         0
         0         0         0         0         0         0         0         0
         0         0         0         0         0         0         0         0
         0         0         0         0         0         0         0         0
         0         0         0         0         0         0         0         0
         0         0         0         0         0         0         0         0
         0         0         0         0         0         0         0         0
         0         0         0         0         0         0         0         0
         0         0         0         0         0         0         0         0
         0         0         0         0         0         0         0         0
         0         0         0         0         0         0         0         0
         0         0         0         0         0         0         0         0
         0         0         0         0         0         0         0         0
         0         0         0         0         0         0         0         0
         0         0         0         0         0         0         0         0
         0         0         0         0         0         0         0         0
         0         0         0         0         0         0         0         0
         0         0         0         0         0         0         0         0
         0         0         0         0         0         0         0         0
         0         0         0         0         0         0         0         0
         0         0         0         0         0         0         0         0
         0         0         0         0         0         0         0         0
         0         0         0         0         0         0         0         0
         0         0         0         0         0         0         0         0
         0         0         0         0         0         0         0         0
         0         0         0         0         0         0         0         0
         0         0         0         0         0         0         0         0
         0         0         0         0         0         0         0         0
         0         0         0         0         0         0         0         0
         0         0         0         0         0         0         0         0
         0         0         0         0         0         0         0         0
         0         0         0         0         0         0         0         0
         0         0         0         0         0         0         0         0
         0         0         0         0         0         0         0         0
         0         0         0         0         0         0         0         0
         0         0         0         0         0         0         0         0
         0         0         0         0         0         0         0         0
         0         0         0         0         0         0         0         0
         0         0         0         0         0         0         0         0
         0         0         0         0         0         0         0         0
         0         0         0         0         0         0         0         0
         0         0         0         0         0         0         0         0
         0         0         0         0         0         0         0         0
         0         0         0         0         0         0         0         0
         0         0         0         0         0         0         0         0
         0         0         0         0         0         0         0         0
         0         0         0         0         0         0         0         0
         0         0         0         0         0         0         0         0
         0         0         0         0         0         0         0         0
         0         0         0         0         0         0         0         0
         0         0         0         0         0         0         0         0
         0         0         0         0         0         0         0         0
         0         0         0         0         0         0         0         0
         0         0         0         0         0         0         0         0
         0         0         0         0         0         0         0         0
         0         0         0         0         0         0         0         0
         0         0         0         0         0         0         0         0
         0         0         0         0         0         0         0         0
         0         0         0         0         0         0         0         0
         0         0         0         0         0         0         0         0
         0         0         0         0         0         0         0         0
         0         0         0         0         0         0         0         0
         0         0         0         0         0         0         0         0
         0         0         0         0         0         0         0         0
         0         0         0         0         0         0         0         0
         0         0         0         0         0         0         0         0
         0         0         0         0         0         0         0         0
         0         0         0         0         0         0         0         0
         0         0         0         0         0         0         0         0
         0         0         0         0         0         0         0         0
         0         0         0         0         0         0         0         0
         0         0         0         0         0         0         0         0
         0         0         0         0         0         0         0         0
         0         0         0         0         0         0         0         0
         0         0         0         0         0         0         0         0
         0         0         0         0         0         0         0         0
         0         0         0         0         0         0         0         0
         0         0         0         0         0         0         0         0
         0         0         0         0         0         0         0         0
         0         0         0         0         0         0         0         0
         0         0         0         0         0         0         0         0
         0         0         0         0         0         0         0         0
         0         0         0         0         0         0         0         0
         0         0         0         0         0         0         0         0
         0         0         0         0         0         0         0         0
         0         0         0         0         0         0         0         0
         0         0         0         0         0         0         0         0
         0         0         0         0         0         0         0         0
         0         0         0         0         0         0         0         0
         0         0         0         0         0         0         0         0
         0         0         0         0         0         0         0         0
         0         0         0         0         0         0         0         0
         0         0         0         0         0         0         0         0
         0         0         0         0         0         0         0         0
         0         0         0         0         0         0         0         0
         0         0         0         0         0         0         0         0
         0         0         0         0         0         0         0         0
         0         0         0         0         0         0         0         0
         0         0         0         0         0         0         0         0
         0         0         0         0         0         0         0         0
         0         0         0         0         0         0         0         0
         0         0         0         0         0         0         0         0
         0         0         0         0         0         0         0         0
         0         0         0         0         0         0         0         0
         0         0         0         0         0         0         0         0
         0         0         0         0         0         0         0         0
         0         0         0         0         0         0         0         0
         0         0         0         0         0         0         0         0
         0         0         0         0         0         0         0         0
         0         0         0         0         0         0         0         0
         0         0         0         0         0         0         0         0
         0         0         0         0         0         0         0         0
         0         0         0         0         0         0         0         0
         0         0         0         0         0         0         0         0
         0         0         0         0         0         0         0         0
         0         0         0         0         0         0         0         0
         0         0         0         0         0         0         0         0
         0         0         0         0         0         0         0         0
         0         0         0         0         0         0         0         0
         0         0         0         0         0         0         0         0
         0         0         0         0         0         0         0         0
         0         0         0         0         0         0         0         0
         0         0         0         0         0         0         0         0
         0         0         0         0         0         0         0         0
         0         0         0         0         0         0         0         0
         0         0         0         0         0         0         0         0
         0         0         0         0         0         0         0         0
         0         0         0         0         0         0         0         0
         0         0         0         0         0         0         0         0
         0         0         0         0         0         0         0         0
         0         0         0         0         0         0         0         0
         0         0         0         0         0         0         0         0
         0         0         0         0         0         0         0         0
         0         0         0         0         0         0         0         0
         0         0         0         0         0         0         0         0
         0         0         0         0         0         0         0         0
         0         0         0         0         0         0         0         0
         0         0         0         0         0         0         0         0
         0         0         0         0         0         0         0         0
         0         0         0         0         0         0         0         0
         0         0         0         0         0         0         0         0
         0         0         0         0         0         0         0         0
         0         0         0         0         0         0         0         0
         0         0         0         0         0         0         0         0
         0         0         0         0         0         0         0         0
         0         0         0         0         0         0         0         0
         0         0         0         0         0         0         0         0
         0         0         0         0         0         0         0         0
         0         0         0         0         0         0         0         0
         0         0         0         0         0         0         0         0
         0         0         0         0         0         0         0         0
         0         0         0         0         0         0         0         0
         0         0         0         0         0         0         0         0
         0         0         0         0         0         0         0         0
         0         0         0         0         0         0         0         0
         0         0         0         0         0         0         0         0
         0         0         0         0         0         0         0         0
         0         0         0         0         0         0         0         0
         0         0         0         0         0         0         0         0
         0         0         0         0         0         0         0         0
         0         0         0         0         0         0         0         0
         0         0         0         0         0         0         0         0
         0         0         0         0         0         0         0         0
         0         0         0         0         0         0         0         0
         0         0         0         0         0         0         0         0
         0         0         0         0         0         0         0         0
         0         0         0         0         0         0         0         0
         0         0         0         0         0         0         0         0
         0         0         0         0         0         0         0         0
         0         0         0         0         0         0         0         0
         0         0         0         0         0         0         0         0
         0         0         0         0         0         0         0         0
         0         0         0         0         0         0         0         0
         0         0         0         0         0         0         0         0
         0         0         0         0         0         0         0         0
         0         0         0         0         0         0         0         0
         0         0         0         0         0         0         0         0
         0         0         0         0         0         0         0         0
         0         0         0         0         0         0         0         0
         0         0         0         0         0         0         0         0
         0         0         0         0         0         0         0         0
         0         0         0         0         0         0         0         0
         0         0         0         0         0         0         0         0
         0         0         0         0         0         0         0         0
         0         0         0         0         0         0         0         0
         0         0         0         0         0         0         0         0
         0         0         0         0         0         0         0         0
         0         0         0         0         0         0         0         0
         0         0         0         0         0         0         0         0
         0         0         0         0         0         0         0         0
         0         0         0         0         0         0         0         0
         0         0         0         0         0         0         0         0
         0         0         0         0         0         0         0         0
         0         0         0         0         0         0         0         0
         0         0         0         0         0         0         0         0
         0         0         0         0         0         0         0         0
         0         0         0         0         0         0         0         0
         0         0         0         0         0         0         0         0
         0         0         0         0         0         0         0         0
         0         0         0         0         0         0         0         0
         0         0         0         0         0         0         0         0
         0         0         0         0         0         0         0         0
         0         0         0         0         0         0         0         0
         0         0         0         0         0         0         0         0
         0         0         0         0         0         0         0         0
         0         0         0         0         0         0         0         0
         0         0         0         0         0         0         0         0
         0         0         0         0         0         0         0         0
         0         0         0         0         0         0         0         0
         0         0         0         0         0         0         0         0
         0         0         0         0         0         0         0         0
         0         0         0         0         0         0         0         0
         0         0         0         0         0         0         0         0
         0         0         0         0         0         0         0         0
         0         0         0         0         0         0         0         0
         0         0         0         0         0         0         0         0
         0         0         0         0         0         0         0         0
         0         0         0         0         0         0         0         0
         0         0         0         0         0         0         0         0
         0         0         0         0         0         0         0         0
         0         0         0         0         0         0         0         0
         0         0         0         0         0         0         0         0
         0         0         0         0         0         0         0         0
         0         0         0         0         0         0         0         0
         0         0         0         0         0         0         0         0
         0         0         0         0         0         0         0         0
         0         0         0         0         0         0         0         0
         0         0         0         0         0         0         0         0
         0         0         0         0         0         0         0         0
         0         0         0         0         0         0         0         0
         0         0         0         0         0         0         0         0
         0         0         0         0         0         0         0         0
         0         0         0         0         0         0         0         0
         0         0         0         0         0         0         0         0
         0         0         0         0         0         0         0         0
         0         0         0         0         0         0         0         0
         0         0         0         0         0         0         0         0
         0         0         0         0         0         0         0         0
         0         0         0         0         0         0         0         0
         0         0         0         0         0         0         0         0
         0         0         0         0         0         0         0         0
         0         0         0         0         0         0         0         0
         0         0         0         0         0         0         0         0
         0         0         0         0         0         0         0         0
         0         0         0         0         0         0         0         0
         0         0         0         0         0         0         0         0
         0         0         0         0         0         0         0         0
         0         0         0         0         0         0         0         0
         0         0         0         0         0         0         0         0
         0         0         0         0         0         0         0         0
         0         0         0         0         0         0         0         0
         0         0         0         0         0         0         0         0
         0         0         0         0         0         0         0         0
         0         0         0         0         0         0         0         0
         0         0         0         0         0         0         0         0
         0         0         0         0         0         0         0         0
         0         0         0         0         0         0         0         0
         0         0         0         0         0         0         0         0
         0         0         0         0         0         0         0         0
         0         0         0         0         0         0         0         0
         0         0         0         0         0         0         0         0
         0         0         0         0         0         0         0         0
         0         0         0         0         0         0         0         0
         0         0         0         0         0         0         0         0
         0         0         0         0         0         0         0         0
         0         0         0         0         0         0         0         0
         0         0         0         0         0         0         0         0
         0         0         0         0         0         0         0         0
         0         0         0         0         0         0         0         0
         0         0         0         0         0         0         0         0
         0         0         0         0         0         0         0         0
         0         0         0         0         0         0         0         0
         0         0         0         0         0         0         0         0
         0         0         0         0         0         0         0         0
         0         0         0         0         0         0         0         0
         0         0         0         0         0         0         0         0
         0         0         0         0         0         0         0         0
         0         0         0         0         0         0         0         0
         0         0         0         0         0         0         0         0
         0         0         0         0         0         0         0         0
         0         0         0         0         0         0         0         0
         0         0         0         0         0         0         0         0
         0         0         0         0         0         0         0         0
         0         0         0         0         0         0         0         0
         0         0         0         0         0         0         0         0
         0         0         0         0         0         0         0         0
         0         0         0         0         0         0         0         0
         0         0         0         0         0         0         0         0
         0         0         0         0         0         0         0         0
         0         0         0         0         0         0         0         0
         0         0         0         0         0         0         0         0
         0         0         0         0         0         0         0         0
         0         0         0         0         0         0         0         0
         0         0         0         0         0         0         0         0
         0         0         0         0         0         0         0         0
         0         0         0         0         0         0         0         0
         0         0         0         0         0         0         0         0
         0         0         0         0         0         0         0         0
         0         0         0         0         0         0         0         0
         0         0         0         0         0         0         0         0
         0         0         0         0         0         0         0         0
         0         0         0         0         0         0         0         0
         0         0         0         0         0         0         0         0
         0         0         0         0         0         0         0         0
         0         0         0         0         0         0         0         0
         0         0         0         0         0         0         0         0
         0         0         0         0         0         0         0         0
         0         0         0         0         0         0         0         0
         0         0         0         0         0         0         0         0
         0         0         0         0         0         0         0         0
         0         0         0         0         0         0         0         0
         0         0         0         0         0         0         0         0
         0         0         0         0         0         0         0         0
         0         0         0         0         0         0         0         0
         0         0         0         0         0         0         0         0
         0         0         0         0         0         0         0         0
         0         0         0         0         0         0         0         0
         0         0         0         0         0         0         0         0
         0         0         0         0         0         0         0         0
         0         0         0         0         0         0         0         0
         0         0         0         0         0         0         0         0
         0         0         0         0         0         0         0         0
         0         0         0         0         0         0         0         0
         0         0         0         0         0         0         0         0
         0         0         0         0         0         0         0         0
         0         0         0         0         0         0         0         0
         0         0         0         0         0         0         0         0
         0         0         0         0         0         0         0         0
         0         0         0         0         0         0         0         0
         0         0         0         0         0         0         0         0
         0         0         0         0         0         0         0         0
         0         0         0         0         0         0         0         0
         0         0         0         0         0         0         0         0
         0         0         0         0         0         0         0         0
         0         0         0         0         0         0         0         0
         0         0         0         0         0         0         0         0
         0         0         0         0         0         0         0         0
         0         0         0         0         0         0         0         0
         0         0         0         0         0         0         0         0
         0         0         0         0         0         0         0         0
         0         0         0         0         0         0         0         0
         0         0         0         0         0         0         0         0
         0         0         0         0         0         0         0         0
         0         0         0         0         0         0         0         0
         0         0         0         0         0         0         0         0
         0         0         0         0         0         0         0         0
         0         0         0         0         0         0         0         0
         0         0         0         0         0         0         0         0
         0         0         0         0         0         0         0         0
         0         0         0         0         0         0         0         0
         0         0         0         0         0         0         0         0
         0         0         0         0         0         0         0         0
         0         0         0         0         0         0         0         0
         0         0         0         0         0         0         0         0
         0         0         0         0         0         0         0         0
         0         0         0         0         0         0         0         0
         0         0         0         0         0         0         0         0
         0         0         0         0         0         0         0         0
         0         0         0         0         0         0         0         0
         0         0         0         0         0         0         0         0
         0         0         0         0         0         0         0         0
         0         0         0         0         0         0         0         0
         0         0         0         0         0         0         0         0
         0         0         0         0         0         0         0         0
         0         0         0         0         0         0         0         0
         0         0         0         0         0         0         0         0
         0         0         0         0         0         0         0         0
         0         0         0         0         0         0         0         0
         0         0         0         0         0         0         0         0
         0         0         0         0         0         0         0         0
         0         0         0         0         0         0         0         0
         0         0         0         0         0         0         0         0
         0         0         0         0         0         0         0         0
         0         0         0         0         0         0         0         0
         0         0         0         0         0         0         0         0
         0         0         0         0         0         0         0         0
         0         0         0         0         0         0         0         0
         0         0         0         0         0         0         0         0
         0         0         0         0         0         0         0         0
         0         0         0         0         0         0         0         0
         0         0         0         0         0         0         0         0
         0         0         0         0         0         0         0         0
         0         0         0         0         0         0         0         0
         0         0         0         0         0         0         0         0
         0         0         0         0         0         0         0         0
         0         0         0         0         0         0         0         0
         0         0         0         0         0         0         0         0
         0         0         0         0         0         0         0         0
         0         0         0         0         0         0         0         0
         0         0         0         0         0         0         0         0
         0         0         0         0         0         0         0         0
         0         0         0         0         0         0         0         0
         0         0         0         0         0         0         0         0
         0         0         0         0         0         0         0         0
         0         0         0         0         0         0         0         0
         0         0         0         0         0         0         0         0
         0         0         0         0         0         0         0         0
         0         0         0         0         0         0         0         0
         0         0         0         0         0         0         0         0
         0         0         0         0         0         0         0         0
         0         0         0         0         0         0         0         0
         0         0         0         0         0         0         0         0
         0         0         0         0         0         0         0         0
         0         0         0         0         0         0         0         0
         0         0         0         0         0         0         0         0
         0         0         0         0         0         0         0         0
         0         0         0         0         0         0         0         0
         0         0         0         0         0         0         0         0
         0         0         0         0         0         0         0         0
         0         0         0         0         0         0         0         0
         0         0         0         0         0         0         0         0
         0         0         0         0         0         0         0         0
         0         0         0         0         0         0         0         0
         0         0         0         0         0         0         0         0
         0         0         0         0         0         0         0         0
         0         0         0         0         0         0         0         0
         0         0         0         0         0         0         0         0
         0         0         0         0         0         0         0         0
         0         0         0         0         0         0         0         0
         0         0         0         0         0         0         0         0
         0         0         0         0         0         0         0         0
         0         0         0         0         0         0         0         0
         0         0         0         0         0         0         0         0
         0         0         0         0         0         0         0         0
         0         0         0         0         0         0         0         0
         0         0         0         0         0         0         0         0
         0         0         0         0         0         0         0         0
         0         0         0         0         0         0         0         0
         0         0         0         0         0         0         0         0
         0         0         0         0         0         0         0         0
         0         0         0         0         0         0         0         0
         0         0         0         0         0         0         0         0
         0         0         0         0         0         0         0         0
         0         0         0         0         0         0         0         0
         0         0         0         0         0         0         0         0
         0         0         0         0         0         0         0         0
         0         0         0         0         0         0         0         0
         0         0         0         0         0         0         0         0
         0         0         0         0         0         0         0         0
         0         0         0         0         0         0         0         0
         0         0         0         0         0         0         0         0
         0         0         0         0         0         0         0         0
         0         0         0         0         0         0         0         0
         0         0         0         0         0         0         0         0
         0         0         0         0         0         0         0         0
         0         0         0         0         0         0         0         0
         0         0         0         0         0         0         0         0
         0         0         0         0         0         0         0         0
         0         0         0         0         0         0         0         0
         0         0         0         0         0         0         0         0
         0         0         0         0         0         0         0         0
         0         0         0         0         0         0         0         0
         0         0         0         0         0         0         0         0
         0         0         0         0         0         0         0         0
         0         0         0         0         0         0         0         0
         0         0         0         0         0         0         0         0
         0         0         0         0         0         0         0         0
         0         0         0         0         0         0         0         0
         0         0         0         0         0         0         0         0
         0         0         0         0         0         0         0         0
         0         0         0         0         0         0         0         0
         0         0         0         0         0         0         0         0
         0         0         0         0         0         0         0         0
         0         0         0         0         0         0         0         0
         0         0         0         0         0         0         0         0
         0         0         0         0         0         0         0         0
         0         0         0         0         0         0         0         0
         0         0         0         0         0         0         0         0
         0         0         0         0         0         0         0         0
         0         0         0         0         0         0         0         0
         0         0         0         0         0         0         0         0
         0         0         0         0         0         0         0         0
         0         0         0         0         0         0         0         0
         0         0         0         0         0         0         0         0
         0         0         0         0         0         0         0         0
         0         0         0         0         0         0         0         0
         0         0         0         0         0         0         0         0
         0         0         0         0         0         0         0         0
         0         0         0         0         0         0         0         0
         0         0         0         0         0         0         0         0
         0         0         0         0         0         0         0         0
         0         0         0         0         0         0         0         0
         0         0         0         0         0         0         0         0
         0         0         0         0         0         0         0         0
         0         0         0         0         0         0         0         0
         0         0         0         0         0         0         0         0
         0         0         0         0         0         0         0         0
         0         0         0         0         0         0         0         0
         0         0         0         0         0         0         0         0
         0         0         0         0         0         0         0         0
         0         0         0         0         0         0         0         0
         0         0         0         0         0         0         0         0
         0         0         0         0         0         0         0         0
         0         0         0         0         0         0         0         0
         0         0         0         0         0         0         0         0
         0         0         0         0         0         0         0         0
         0         0         0         0         0         0         0         0
         0         0         0         0         0         0         0         0
         0         0         0         0         0         0         0         0
         0         0         0         0         0         0         0         0
         0         0         0         0         0         0         0         0
         0         0         0         0         0         0         0         0
         0         0         0         0         0         0         0         0
         0         0         0         0         0         0         0         0
         0         0         0         0         0         0         0         0
         0         0         0         0         0         0         0         0
         0         0         0         0         0         0         0         0
         0         0         0         0         0         0         0         0
         0         0         0         0         0         0         0         0
         0         0         0         0         0         0         0         0
         0         0         0         0         0         0         0         0
         0         0         0         0         0         0         0         0
         0         0         0         0         0         0         0         0
         0         0         0         0         0         0         0         0
         0         0         0         0         0         0         0         0
         0         0         0         0         0         0         0         0
         0         0         0         0         0         0         0         0
         0         0         0         0         0         0         0         0
         0         0         0         0         0         0         0         0
         0         0         0         0         0         0         0         0
         0         0         0         0         0         0         0         0
         0         0         0         0         0         0         0         0
         0         0         0         0         0         0         0         0
         0         0         0         0         0         0         0         0
         0         0         0         0         0         0         0         0
         0         0         0         0         0         0         0         0
         0         0         0         0         0         0         0         0
         0         0         0         0         0         0         0         0
         0         0         0         0         0         0         0         0
         0         0         0         0         0         0         0         0
         0         0         0         0         0         0         0         0
         0         0         0         0         0         0         0         0
         0         0         0         0         0         0         0         0
         0         0         0         0         0         0         0         0
         0         0         0         0         0         0         0         0
         0         0         0         0         0         0         0         0
         0         0         0         0         0         0         0         0
         0         0         0         0         0         0         0         0
         0         0         0         0         0         0         0         0
         0         0         0         0         0         0         0         0
         0         0         0         0         0         0         0         0
         0         0         0         0         0         0         0         0
         0         0         0         0         0         0         0         0
         0         0         0         0         0         0         0         0
         0         0         0         0         0         0         0         0
         0         0         0         0         0         0         0         0
         0         0         0         0         0         0         0         0
         0         0         0         0         0         0         0         0
         0         0         0         0         0         0         0         0
         0         0         0         0         0         0         0         0
         0         0         0         0         0         0         0         0
         0         0         0         0         0         0         0         0
         0         0         0         0         0         0         0         0
         0         0         0         0         0         0         0         0
         0         0         0         0         0         0         0         0
         0         0         0         0         0         0         0         0
         0         0         0         0         0         0         0         0
         0         0         0         0         0         0         0         0
         0         0         0         0         0         0         0         0
         0         0         0         0         0         0         0         0
         0         0         0         0         0         0         0         0
         0         0         0         0         0         0         0         0
         0         0         0         0         0         0         0         0
         0         0         0         0         0         0         0         0
         0         0         0         0         0         0         0         0
         0         0         0         0         0         0         0         0
         0         0         0         0         0         0         0         0
         0         0         0         0         0         0         0         0
         0         0         0         0         0         0         0         0
         0         0         0         0         0         0         0         0
         0         0         0         0         0         0         0         0
         0         0         0         0         0         0         0         0
         0         0         0         0         0         0         0         0
         0         0         0         0         0         0         0         0
         0         0         0         0         0         0         0         0
         0         0         0         0         0         0         0         0
         0         0         0         0         0         0         0         0
         0         0         0         0         0         0         0         0
         0         0         0         0         0         0         0         0
         0         0         0         0         0         0         0         0
         0         0         0         0         0         0         0         0
         0         0         0         0         0         0         0         0
         0         0         0         0         0         0         0         0
         0         0         0         0         0         0         0         0
         0         0         0         0         0         0         0         0
         0         0         0         0         0         0         0         0
         0         0         0         0         0         0         0         0
         0         0         0         0         0         0         0         0
         0         0         0         0         0         0         0         0
         0         0         0         0         0         0         0         0
         0         0         0         0         0         0         0         0
         0         0         0         0         0         0         0         0
         0         0         0         0         0         0         0         0
         0         0         0         0         0         0         0         0
         0         0         0         0         0         0         0         0
         0         0         0         0         0         0         0         0
         0         0         0         0         0         0         0         0
         0         0         0         0         0         0         0         0
         0         0         0         0         0         0         0         0
         0         0         0         0         0         0         0         0
         0         0         0         0         0         0         0         0
         0         0         0         0         0         0         0         0
         0         0         0         0         0         0         0         0
         0         0         0         0         0         0         0         0
         0         0         0         0         0         0         0         0
         0         0         0         0         0         0         0         0
         0         0         0         0         0         0         0         0
         0         0         0         0         0         0         0         0
         0         0         0         0         0         0         0         0
         0         0         0         0         0         0         0         0
         0         0         0         0         0         0         0         0
         0         0         0         0         0         0         0         0
         0         0         0         0         0         0         0         0
         0         0         0         0         0         0         0         0
         0         0         0         0         0         0         0         0
         0         0         0         0         0         0         0         0
         0         0         0         0         0         0         0         0
         0         0         0         0         0         0         0         0
         0         0         0         0         0         0         0         0
         0         0         0         0         0         0         0         0
         0         0         0         0         0         0         0         0
         0         0         0         0         0         0         0         0
         0         0         0         0         0         0         0         0
         0         0         0         0         0         0         0         0
         0         0         0         0         0         0         0         0
         0         0         0         0         0         0         0         0
         0         0         0         0         0         0         0         0
         0         0         0         0         0         0         0         0
         0         0         0         0         0         0         0         0
         0         0         0         0         0         0         0         0
         0         0         0         0         0         0         0         0
         0         0         0         0         0         0         0         0
         0         0         0         0         0         0         0         0
         0         0         0         0         0         0         0         0
         0         0         0         0         0         0         0         0
         0         0         0         0         0         0         0         0
         0         0         0         0         0         0         0         0
         0         0         0         0         0         0         0         0
         0         0         0         0         0         0         0         0
         0         0         0         0         0         0         0         0
         0         0         0         0         0         0         0         0
         0         0         0         0         0         0         0         0
         0         0         0         0         0         0         0         0
         0         0         0         0         0         0         0         0
         0         0         0         0         0         0         0         0
         0         0         0         0         0         0         0         0
         0         0         0         0         0         0         0         0
         0         0         0         0         0         0         0         0
         0         0         0         0         0         0         0         0
         0         0         0         0         0         0         0         0
         0         0         0         0         0         0         0         0
         0         0         0         0         0         0         0         0
         0         0         0         0         0         0         0         0
         0         0         0         0         0         0         0         0
         0         0         0         0         0         0         0         0
         0         0         0         0         0         0         0         0
         0         0         0         0         0         0         0         0
         0         0         0         0         0         0         0         0
         0         0         0         0         0         0         0         0
         0         0         0         0         0         0         0         0
         0         0         0         0         0         0         0         0
         0         0         0         0         0         0         0         0
         0         0         0         0         0         0         0         0
         0         0         0         0         0         0         0         0
         0         0         0         0         0         0         0         0
         0         0         0         0         0         0         0         0
         0         0         0         0         0         0         0         0
         0         0         0         0         0         0         0         0
         0         0         0         0         0         0         0         0
         0         0         0         0         0         0         0         0
         0         0         0         0         0         0         0         0
         0         0         0         0         0         0         0         0
         0         0         0         0         0         0         0         0
         0         0         0         0         0         0         0         0
         0         0         0         0         0         0         0         0
         0         0         0         0         0         0         0         0
         0         0         0         0         0         0         0         0
         0         0         0         0         0         0         0         0
         0         0         0         0         0         0         0         0
         0         0         0         0         0         0         0         0
         0         0         0         0         0         0         0         0
         0         0         0         0         0         0         0         0
         0         0         0         0         0         0         0         0
         0         0         0         0         0         0         0         0
         0         0         0         0         0         0         0         0
         0         0         0         0         0         0         0         0
         0         0         0         0         0         0         0         0
         0         0         0         0         0         0         0         0
         0         0         0         0         0         0         0         0
         0         0         0         0         0         0         0         0
         0         0         0         0         0         0         0         0
         0         0         0         0         0         0         0         0
         0         0         0         0         0         0         0         0
         0         0         0         0         0         0         0         0
         0         0         0         0         0         0         0         0
         0         0         0         0         0         0         0         0
         0         0         0         0         0         0         0         0
         0         0         0         0         0         0         0         0
         0         0         0         0         0         0         0         0
         0         0         0         0         0         0         0         0
         0         0         0         0         0         0         0         0
         0         0         0         0         0         0         0         0
         0         0         0         0         0         0         0         0
         0         0         0         0         0         0         0         0
         0         0         0         0         0         0         0         0
         0         0         0         0         0         0         0         0
         0         0         0         0         0         0         0         0
         0         0         0         0         0         0         0         0
         0         0         0         0         0         0         0         0
         0         0         0         0         0         0         0         0
         0         0         0         0         0         0         0         0
         0         0         0         0         0         0         0         0
         0         0         0         0         0         0         0         0
         0         0         0         0         0         0         0         0
         0         0         0         0         0         0         0         0
         0         0         0         0         0         0         0         0
         0         0         0         0         0         0         0         0
         0         0         0         0         0         0         0         0
         0         0         0         0         0         0         0         0
         0         0         0         0         0         0         0         0
         0         0         0         0         0         0         0         0
         0         0         0         0         0         0         0         0
         0         0         0         0         0         0         0         0
         0         0         0         0         0         0         0         0
         0         0         0         0         0         0         0         0
         0         0         0         0         0         0         0         0
         0         0         0         0         0         0         0         0
         0         0         0         0         0         0         0         0
         0         0         0         0         0         0         0         0
         0         0         0         0         0         0         0         0
         0         0         0         0         0         0         0         0
         0         0         0         0         0         0         0         0
         0         0         0         0         0         0         0         0
         0         0         0         0         0         0         0         0
         0         0         0         0         0         0         0         0
         0         0         0         0         0         0         0         0
         0         0         0         0         0         0         0         0
         0         0         0         0         0         0         0         0
         0         0         0         0         0         0         0         0
         0         0         0         0         0         0         0         0
         0         0         0         0         0         0         0         0
         0         0         0         0         0         0         0         0
         0         0         0         0         0         0         0         0
         0         0         0         0         0         0         0         0
         0         0         0         0         0         0         0         0
         0         0         0         0         0         0         0         0
         0         0         0         0         0         0         0         0
         0         0         0         0         0         0         0         0
         0         0         0         0         0         0         0         0
         0         0         0         0         0         0         0         0
         0         0         0         0         0         0         0         0
         0         0         0         0         0         0         0         0
         0         0         0         0         0         0         0         0
         0         0         0         0         0         0         0         0
         0         0         0         0         0         0         0         0
         0         0         0         0         0         0         0         0
         0         0         0         0         0         0         0         0
         0         0         0         0         0         0         0         0
         0         0         0         0         0         0         0         0
         0         0         0         0         0         0         0         0
         0         0         0         0         0         0         0         0
         0         0         0         0         0         0         0         0
         0         0         0         0         0         0         0         0
         0         0         0         0         0         0         0         0
         0         0         0         0         0         0         0         0
         0         0         0         0         0         0         0         0
         0         0         0         0         0         0         0         0
         0         0         0         0         0         0         0         0
         0         0         0         0         0         0         0         0
         0         0         0         0         0         0         0         0
         0         0         0         0         0         0         0         0
         0         0         0         0         0         0         0         0
         0         0         0         0         0         0         0         0
         0         0         0         0         0         0         0         0
         0         0         0         0         0         0         0         0
         0         0         0         0         0         0         0         0
         0         0         0         0         0         0         0         0
         0         0         0         0         0         0         0         0
         0         0         0         0         0         0         0         0
         0         0         0         0         0         0         0         0
         0         0         0         0         0         0         0         0
         0         0         0         0         0         0         0         0
         0         0         0         0         0         0         0         0
         0         0         0         0         0         0         0         0
         0         0         0         0         0         0         0         0
         0         0         0         0         0         0         0         0
         0         0         0         0         0         0         0         0
         0         0         0         0         0         0         0         0
         0         0         0         0         0         0         0         0
         0         0         0         0         0         0         0         0
         0         0         0         0         0         0         0         0
         0         0         0         0         0         0         0         0
         0         0         0         0         0         0         0         0
         0         0         0         0         0         0         0         0
         0         0         0         0         0         0         0         0
         0         0         0         0         0         0         0         0
         0         0         0         0         0         0         0         0
         0         0         0         0         0         0         0         0
         0         0         0         0         0         0         0         0
         0         0         0         0         0         0         0         0
         0         0         0         0         0         0         0         0
         0         0         0         0         0         0         0         0
         0         0         0         0         0         0         0         0
         0         0         0         0         0         0         0         0
         0         0         0         0         0         0         0         0
         0         0         0         0         0         0         0         0
         0         0         0         0         0         0         0         0
         0         0         0         0         0         0         0         0
         0         0         0         0         0         0         0         0
         0         0         0         0         0         0         0         0
         0         0         0         0         0         0         0         0
         0         0         0         0         0         0         0         0
         0         0         0         0         0         0         0         0
         0         0         0         0         0         0         0         0
         0         0         0         0         0         0         0         0
         0         0         0         0         0         0         0         0
         0         0         0         0         0         0         0         0
         0         0         0         0         0         0         0         0
         0         0         0         0         0         0         0         0
         0         0         0         0         0         0         0         0
         0         0         0         0         0         0         0         0
         0         0         0         0         0         0         0         0
         0         0         0         0         0         0         0         0
         0         0         0         0         0         0         0         0
         0         0         0         0         0         0         0         0
         0         0         0         0         0         0         0         0
         0         0         0         0         0         0         0         0
         0         0         0         0         0         0         0         0
         0         0         0         0         0         0         0         0
         0         0         0         0         0         0         0         0
         0         0         0         0         0         0         0         0
         0         0         0         0         0         0         0         0
         0         0         0         0         0         0         0         0
         0         0         0         0         0         0         0         0
         0         0         0         0         0         0         0         0
         0         0         0         0         0         0         0         0
         0         0         0         0         0         0         0         0
         0         0         0         0         0         0         0         0
         0         0         0         0         0         0         0         0
         0         0         0         0         0         0         0         0
         0         0         0         0         0         0         0         0
         0         0         0         0         0         0         0         0
         0         0         0         0         0         0         0         0
         0         0         0         0         0         0         0         0
         0         0         0         0         0         0         0         0
         0         0         0         0         0         0         0         0
         0         0         0         0         0         0         0         0
         0         0         0         0         0         0         0         0
         0         0         0         0         0         0         0         0
         0         0         0         0         0         0         0         0
         0         0         0         0         0         0         0         0
         0         0         0         0         0         0         0         0
         0         0         0         0         0         0         0         0
         0         0         0         0         0         0         0         0
         0         0         0         0         0         0         0         0
         0         0         0         0         0         0         0         0
         0         0         0         0         0         0         0         0
         0         0         0         0         0         0         0         0
         0         0         0         0         0         0         0         0
         0         0         0         0         0         0         0         0
         0         0         0         0         0         0         0         0
         0         0         0         0         0         0         0         0
         0         0         0         0         0         0         0         0
         0         0         0         0         0         0         0         0
         0         0         0         0         0         0         0         0
         0         0         0         0         0         0         0         0
         0         0         0         0         0         0         0         0
         0         0         0         0         0         0         0         0
         0         0         0         0         0         0         0         0
         0         0         0         0         0         0         0         0
         0         0         0         0         0         0         0         0
         0         0         0         0         0         0         0         0
         0         0         0         0         0         0         0         0
         0         0         0         0         0         0         0         0
         0         0         0         0         0         0         0         0
         0         0         0         0         0         0         0         0
         0         0         0         0         0         0         0         0
         0         0         0         0         0         0         0         0
         0         0         0         0         0         0         0         0
         0         0         0         0         0         0         0         0
         0         0         0         0         0         0         0         0
         0         0         0         0         0         0         0         0
         0         0         0         0         0         0         0         0
         0         0         0         0         0         0         0         0
         0         0         0         0         0         0         0         0
         0         0         0         0         0         0         0         0
         0         0         0         0         0         0         0         0
         0         0         0         0         0         0         0         0
         0         0         0         0         0         0         0         0
         0         0         0         0         0         0         0         0
         0         0         0         0         0         0         0         0
         0         0         0         0         0         0         0         0
         0         0         0         0         0         0         0         0
         0         0         0         0         0         0         0         0
         0         0         0         0         0         0         0         0
         0         0         0         0         0         0         0         0
         0         0         0         0         0         0         0         0
         0         0         0         0         0         0         0         0
         0         0         0         0         0         0         0         0
         0         0         0         0         0         0         0         0
         0         0         0         0         0         0         0         0
         0         0         0         0         0         0         0         0
         0         0         0         0         0         0         0         0
         0         0         0         0         0         0         0         0
         0         0         0         0         0         0         0         0
         0         0         0         0         0         0         0         0
         0         0         0         0         0         0         0         0
         0         0         0         0         0         0         0         0
         0         0         0         0         0         0         0         0
         0         0         0         0         0         0         0         0
         0         0         0         0         0         0         0         0
         0         0         0         0         0         0         0         0
         0         0         0         0         0         0         0         0
         0         0         0         0         0         0         0         0
         0         0         0         0         0         0         0         0
         0         0         0         0         0         0         0         0
         0         0         0         0         0         0         0         0
         0         0         0         0         0         0         0         0
         0         0         0         0         0         0         0         0
         0         0         0         0         0         0         0         0
         0         0         0         0         0         0         0         0
         0         0         0         0         0         0         0         0
         0         0         0         0         0         0         0         0
         0         0         0         0         0         0         0         0
         0         0         0         0         0         0         0         0
         0         0         0         0         0         0         0         0
         0         0         0         0         0         0         0         0
         0         0         0         0         0         0         0         0
         0         0         0         0         0         0         0         0
         0         0         0         0         0         0         0         0
         0         0         0         0         0         0         0         0
         0         0         0         0         0         0         0         0
         0         0         0         0         0         0         0         0
         0         0         0         0         0         0         0         0
         0         0         0         0         0         0         0         0
         0         0         0         0         0         0         0         0
         0         0         0         0         0         0         0         0
         0         0         0         0         0         0         0         0
         0         0         0         0         0         0         0         0
         0         0         0         0         0         0         0         0
         0         0         0         0         0         0         0         0
         0         0         0         0         0         0         0         0
         0         0         0         0         0         0         0         0
         0         0         0         0         0         0         0         0
         0         0         0         0         0         0         0         0
         0         0         0         0         0         0         0         0
         0         0         0         0         0         0         0         0
         0         0         0         0         0         0         0         0
         0         0         0         0         0         0         0         0
         0         0         0         0         0         0         0         0
         0         0         0         0         0         0         0         0
         0         0         0         0         0         0         0         0
         0         0         0         0         0         0         0         0
         0         0         0         0         0         0         0         0
         0         0         0         0         0         0         0         0
         0         0         0         0         0         0         0         0
         0         0         0         0         0         0         0         0
         0         0         0         0         0         0         0         0
         0         0         0         0         0         0         0         0
         0         0         0         0         0         0         0         0
         0         0         0         0         0         0         0         0
         0         0         0         0         0         0         0         0
         0         0         0         0         0         0         0         0
         0         0         0         0         0         0         0         0
         0         0         0         0         0         0         0         0
         0         0         0         0         0         0         0         0
         0         0         0         0         0         0         0         0
         0         0         0         0         0         0         0         0
         0         0         0         0         0         0         0         0
         0         0         0         0         0         0         0         0
         0         0         0         0         0         0         0         0
         0         0         0         0         0         0         0         0
         0         0         0         0         0         0         0         0
         0         0         0         0         0         0         0         0
         0         0         0         0         0         0         0         0
         0         0         0         0         0         0         0         0
         0         0         0         0         0         0         0         0
         0         0         0         0         0         0         0         0
         0         0         0         0         0         0         0         0
         0         0         0         0         0         0         0         0
         0         0         0         0         0         0         0         0
         0         0         0         0         0         0         0         0
         0         0         0         0         0         0         0         0
         0         0         0         0         0         0         0         0
         0         0         0         0         0         0         0         0
         0         0         0         0         0         0         0         0
         0         0         0         0         0         0         0         0
         0         0         0         0         0         0         0         0
         0         0         0         0         0         0         0         0
         0         0         0         0         0         0         0         0
         0         0         0         0         0         0         0         0
         0         0         0         0         0         0         0         0
         0         0         0         0         0         0         0         0
         0         0         0         0         0         0         0         0
         0         0         0         0         0         0         0         0
         0         0         0         0         0         0         0         0
         0         0         0         0         0         0         0         0
         0         0         0         0         0         0         0         0
         0         0         0         0         0         0         0         0
         0         0         0         0         0         0         0         0
         0         0         0         0         0         0         0         0
         0         0         0         0         0         0         0         0
         0         0         0         0         0         0         0         0
         0         0         0         0         0         0         0         0
         0         0         0         0         0         0         0         0
         0         0         0         0         0         0         0         0
         0         0         0         0         0         0         0         0
         0         0         0         0         0         0         0         0
         0         0         0         0         0         0         0         0
         0         0         0         0         0         0         0         0
         0         0         0         0         0         0         0         0
         0         0         0         0         0         0         0         0
         0         0         0         0         0         0         0         0
         0         0         0         0         0         0         0         0
         0         0         0         0         0         0         0         0
         0         0         0         0         0         0         0         0
         0         0         0         0         0         0         0         0
         0         0         0         0         0         0         0         0
         0         0         0         0         0         0         0         0
         0         0         0         0         0         0         0         0
         0         0         0         0         0         0         0         0
         0         0         0         0         0         0         0         0
         0         0         0         0         0         0         0         0
         0         0         0         0         0         0         0         0
         0         0         0         0         0         0         0         0
         0         0         0         0         0         0         0         0
         0         0         0         0         0         0         0         0
         0         0         0         0         0         0         0         0
         0         0         0         0         0         0         0         0
         0         0         0         0         0         0         0         0
         0         0         0         0         0         0         0         0
         0         0         0         0         0         0         0         0
         0         0         0         0         0         0         0         0
         0         0         0         0         0         0         0         0
         0         0         0         0         0         0         0         0
         0         0         0         0         0         0         0         0
         0         0         0         0         0         0         0         0
         0         0         0         0         0         0         0         0
         0         0         0         0         0         0         0         0
         0         0         0         0         0         0         0         0
         0         0         0         0         0         0         0         0
         0         0         0         0         0         0         0         0
         0         0         0         0         0         0         0         0
         0         0         0         0         0         0         0         0
         0         0         0         0         0         0         0         0
         0         0         0         0         0         0         0         0
         0         0         0         0         0         0         0         0
         0         0         0         0         0         0         0         0
         0         0         0         0         0         0         0         0
         0         0         0         0         0         0         0         0
         0         0         0         0         0         0         0         0
         0         0         0         0         0         0         0         0
         0         0         0         0         0         0         0         0
         0         0         0         0         0         0         0         0
         0         0         0         0         0         0         0         0
         0         0         0         0         0         0         0         0
         0         0         0         0         0         0         0         0
         0         0         0         0         0         0         0         0
         0         0         0         0         0         0         0         0
         0         0         0         0         0         0         0         0
         0         0         0         0         0         0         0         0
         0         0         0         0         0         0         0         0
         0         0         0         0         0         0         0         0
         0         0         0         0         0         0         0         0
         0         0         0         0         0         0         0         0
         0         0         0         0         0         0         0         0
         0         0         0         0         0         0         0         0
         0         0         0         0         0         0         0         0
         0         0         0         0         0         0         0         0
         0         0         0         0         0         0         0         0
         0         0         0         0         0         0         0         0
         0         0         0         0         0         0         0         0
         0         0         0         0         0         0         0         0
         0         0         0         0         0         0         0         0
         0         0         0         0         0         0         0         0
         0         0         0         0         0         0         0         0
         0         0         0         0         0         0         0         0
         0         0         0         0         0         0         0         0
         0         0         0         0         0         0         0         0
         0         0         0         0         0         0         0         0
         0         0         0         0         0         0         0         0
         0         0         0         0         0         0         0         0
         0         0         0         0         0         0         0         0
         0         0         0         0         0         0         0         0
         0         0         0         0         0         0         0         0
         0         0         0         0         0         0         0         0
         0         0         0         0         0         0         0         0
         0         0         0         0         0         0         0         0
         0         0         0         0         0         0         0         0
         0         0         0         0         0         0         0         0
         0         0         0         0         0         0         0         0
         0         0         0         0         0         0         0         0
         0         0         0         0         0         0         0         0
         0         0         0         0         0         0         0         0
         0         0         0         0         0         0         0         0
         0         0         0         0         0         0         0         0
         0         0         0         0         0         0         0         0
         0         0         0         0         0         0         0         0
         0         0         0         0         0         0         0         0
         0         0         0         0         0         0         0         0
         0         0         0         0         0         0         0         0
         0         0         0         0         0         0         0         0
         0         0         0         0         0         0         0         0
         0         0         0         0         0         0         0         0
         0         0         0         0         0         0         0         0
         0         0         0         0         0         0         0         0
         0         0         0         0         0         0         0         0
         0         0         0         0         0         0         0         0
         0         0         0         0         0         0         0         0
         0         0         0         0         0         0         0         0
         0         0         0         0         0         0         0         0
         0         0         0         0         0         0         0         0
         0         0         0         0         0         0         0         0
         0         0         0         0         0         0         0         0
         0         0         0         0         0         0         0         0
         0         0         0         0         0         0         0         0
         0         0         0         0         0         0         0         0
         0         0         0         0         0         0         0         0
         0         0         0         0         0         0         0         0
         0         0         0         0         0         0         0         0
         0         0         0         0         0         0         0         0
         0         0         0         0         0         0         0         0
         0         0         0         0         0         0         0         0
         0         0         0         0         0         0         0         0
         0         0         0         0         0         0         0         0
         0         0         0         0         0         0         0         0
         0         0         0         0         0         0         0         0
         0         0         0         0         0         0         0         0
         0         0         0         0         0         0         0         0
         0         0         0         0         0         0         0         0
         0         0         0         0         0         0         0         0
         0         0         0         0         0         0         0         0
         0         0         0         0         0         0         0         0
         0         0         0         0         0         0         0         0
         0         0         0         0         0         0         0         0
         0         0         0         0         0         0         0         0
         0         0         0         0         0         0         0         0
         0         0         0         0         0         0         0         0
         0         0         0         0         0         0         0         0
         0         0         0         0         0         0         0         0
         0         0         0         0         0         0         0         0
         0         0         0         0         0         0         0         0
         0         0         0         0         0         0         0         0
         0         0         0         0         0         0         0         0
         0         0         0         0         0         0         0         0
         0         0         0         0         0         0         0         0
         0         0         0         0         0         0         0         0
         0         0         0         0         0         0         0         0
         0         0         0         0         0         0         0         0
         0         0         0         0         0         0         0         0
         0         0         0         0         0         0         0         0
         0         0         0         0         0         0         0         0
         0         0         0         0         0         0         0         0
         0         0         0         0         0         0         0         0
         0         0         0         0         0         0         0         0
         0         0         0         0         0         0         0         0
         0         0         0         0         0         0         0         0
         0         0         0         0         0         0         0         0
         0         0         0         0         0         0         0         0
         0         0         0         0         0         0         0         0
         0         0         0         0         0         0         0         0
         0         0         0         0         0         0         0         0
         0         0         0         0         0         0         0         0
         0         0         0         0         0         0         0         0
         0         0         0         0         0         0         0         0
         0         0         0         0         0         0         0         0
         0         0         0         0         0         0         0         0
         0         0         0         0         0         0         0         0
         0         0         0         0         0         0         0         0
         0         0         0         0         0         0         0         0
         0         0         0         0         0         0         0         0
         0         0         0         0         0         0         0         0
         0         0         0         0         0         0         0         0
         0         0         0         0         0         0         0         0
         0         0         0         0         0         0         0         0
         0         0         0         0         0         0         0         0
         0         0         0         0         0         0         0         0
         0         0         0         0         0         0         0         0
         0         0         0         0         0         0         0         0
         0         0         0         0         0         0         0         0
         0         0         0         0         0         0         0         0
         0         0         0         0         0         0         0         0
         0         0         0         0         0         0         0         0
         0         0         0         0         0         0         0         0
         0         0         0         0         0         0         0         0
         0         0         0         0         0         0         0         0
         0         0         0         0         0         0         0         0
         0         0         0         0         0         0         0         0
         0         0         0         0         0         0         0         0
         0         0         0         0         0         0         0         0
         0         0         0         0         0         0         0         0
         0         0         0         0         0         0         0         0
         0         0         0         0         0         0         0         0
         0         0         0         0         0         0         0         0
         0         0         0         0         0         0         0         0
         0         0         0         0         0         0         0         0
         0         0         0         0         0         0         0         0
         0         0         0         0         0         0         0         0
         0         0         0         0         0         0         0         0
         0         0         0         0         0         0         0         0
         0         0         0         0         0         0         0         0
         0         0         0         0         0         0         0         0
         0         0         0         0         0         0         0         0
         0         0         0         0         0         0         0         0
         0         0         0         0         0         0         0         0
         0         0         0         0         0         0         0         0
         0         0         0         0         0         0         0         0
         0         0         0         0         0         0         0         0
         0         0         0         0         0         0         0         0
         0         0         0         0         0         0         0         0
         0         0         0         0         0         0         0         0
         0         0         0         0         0         0         0         0
         0         0         0         0         0         0         0         0
         0         0         0         0         0         0         0         0
         0         0         0         0         0         0         0         0
         0         0         0         0         0         0         0         0
         0         0         0         0         0         0         0         0
         0         0         0         0         0         0         0         0
         0         0         0         0         0         0         0         0
         0         0         0         0         0         0         0         0
         0         0         0         0         0         0         0         0
         0         0         0         0         0         0         0         0
         0         0         0         0         0         0         0         0
         0         0         0         0         0         0         0         0
         0         0         0         0         0         0         0         0
         0         0         0         0         0         0         0         0
         0         0         0         0         0         0         0         0
         0         0         0         0         0         0         0         0
         0         0         0         0         0         0         0         0
         0         0         0         0         0         0         0         0
         0         0         0         0         0         0         0         0
         0         0         0         0         0         0         0         0
         0         0         0         0         0         0         0         0
         0         0         0         0         0         0         0         0
         0         0         0         0         0         0         0         0
         0         0         0         0         0         0         0         0
         0         0         0         0         0         0         0         0
         0         0         0         0         0         0         0         0
         0         0         0         0         0         0         0         0
         0         0         0         0         0         0         0         0
         0         0         0         0         0         0         0         0
         0         0         0         0         0         0         0         0
         0         0         0         0         0         0         0         0
         0         0         0         0         0         0         0         0
         0         0         0         0         0         0         0         0
         0         0         0         0         0         0         0         0
         0         0         0         0         0         0         0         0
         0         0         0         0         0         0         0         0
         0         0         0         0         0         0         0         0
         0         0         0         0         0         0         0         0
         0         0         0         0         0         0         0         0
         0         0         0         0         0         0         0         0
         0         0         0         0         0         0         0         0
         0         0         0         0         0         0         0         0
         0         0         0         0         0         0         0         0
         0         0         0         0         0         0         0         0
         0         0         0         0         0         0         0         0
         0         0         0         0         0         0         0         0
         0         0         0         0         0         0         0         0
         0         0         0         0         0         0         0         0
         0         0         0         0         0         0         0         0
         0         0         0         0         0         0         0         0
         0         0         0         0         0         0         0         0
         0         0         0         0         0         0         0         0
         0         0         0         0         0         0         0         0
         0         0         0         0         0         0         0         0
         0         0         0         0         0         0         0         0
         0         0         0         0         0         0         0         0
         0         0         0         0         0         0         0         0
         0         0         0         0         0         0         0         0
         0         0         0         0         0         0         0         0
         0         0         0         0         0         0         0         0
         0         0         0         0         0         0         0         0
         0         0         0         0         0         0         0         0
         0         0         0         0         0         0         0         0
         0         0         0         0         0         0         0         0
         0         0         0         0         0         0         0         0
         0         0         0         0         0         0         0         0
         0         0         0         0         0         0         0         0
         0         0         0         0         0         0         0         0
         0         0         0         0         0         0         0         0
         0         0         0         0         0         0         0         0
         0         0         0         0         0         0         0         0
         0         0         0         0         0         0         0         0
         0         0         0         0         0         0         0         0
         0         0         0         0         0         0         0         0
         0         0         0         0         0         0         0         0
         0         0         0         0         0         0         0         0
         0         0         0         0         0         0         0         0
         0         0         0         0         0         0         0         0
         0         0         0         0         0         0         0         0
         0         0         0         0         0         0         0         0
         0         0         0         0         0         0         0         0
         0         0         0         0         0         0         0         0
         0         0         0         0         0         0         0         0
         0         0         0         0         0         0         0         0
         0         0         0         0         0         0         0         0
         0         0         0         0         0         0         0         0
         0         0         0         0         0         0         0         0
         0         0         0         0         0         0         0         0
         0         0         0         0         0         0         0         0
         0         0         0         0         0         0         0         0
         0         0         0         0         0         0         0         0
         0         0         0         0         0         0         0         0
         0         0         0         0         0         0         0         0
         0         0         0         0         0         0         0         0
         0         0         0         0         0         0         0         0
         0         0         0         0         0         0         0         0
         0         0         0         0         0         0         0         0
         0         0         0         0         0         0         0         0
         0         0         0         0         0         0         0         0
         0         0         0         0         0         0         0         0
         0         0         0         0         0         0         0         0
         0         0         0         0         0         0         0         0
         0         0         0         0         0         0         0         0
         0         0         0         0         0         0         0         0
         0         0         0         0         0         0         0         0
         0         0         0         0         0         0         0         0
         0         0         0         0         0         0         0         0
         0         0         0         0         0         0         0         0
         0         0         0         0         0         0         0         0
         0         0         0         0         0         0         0         0
         0         0         0         0         0         0         0         0
         0         0         0         0         0         0         0         0
         0         0         0         0         0         0         0         0
         0         0         0         0         0         0         0         0
         0         0         0         0         0         0         0         0
         0         0         0         0         0         0         0         0
         0         0         0         0         0         0         0         0
         0         0         0         0         0         0         0         0
         0         0         0         0         0         0         0         0
         0         0         0         0         0         0         0         0
         0         0         0         0         0         0         0         0
         0         0         0         0         0         0         0         0
         0         0         0         0         0         0         0         0
         0         0         0         0         0         0         0         0
         0         0         0         0         0         0         0         0
         0         0         0         0         0         0         0         0
         0         0         0         0         0         0         0         0
         0         0         0         0         0         0         0         0
         0         0         0         0         0         0         0         0
         0         0         0         0         0         0         0         0
         0         0         0         0         0         0         0         0
         0         0         0         0         0         0         0         0
         0         0         0         0         0         0         0         0
         0         0         0         0         0         0         0         0
         0         0         0         0         0         0         0         0
         0         0         0         0         0         0         0         0
         0         0         0         0         0         0         0         0
         0         0         0         0         0         0         0         0
         0         0         0         0         0         0         0         0
         0         0         0         0         0         0         0         0
         0         0         0         0         0         0         0         0
         0         0         0         0         0         0         0         0
         0         0         0         0         0         0         0         0
         0         0         0         0         0         0         0         0
         0         0         0         0         0         0         0         0
         0         0         0         0         0         0         0         0
         0         0         0         0         0         0         0         0
         0         0         0         0         0         0         0         0
         0         0         0         0         0         0         0         0
         0         0         0         0         0         0         0         0
         0         0         0         0         0         0         0         0
         0         0         0         0         0         0         0         0
         0         0         0         0         0         0         0         0
         0         0         0         0         0         0         0         0
         0         0         0         0         0         0         0         0
         0         0         0         0         0         0         0         0
         0         0         0         0         0         0         0         0
         0         0         0         0         0         0         0         0
         0         0         0         0         0         0         0         0
         0         0         0         0         0         0         0         0
         0         0         0         0         0         0         0         0
         0         0         0         0         0         0         0         0
         0         0         0         0         0         0         0         0
         0         0         0         0         0         0         0         0
         0         0         0         0         0         0         0         0
         0         0         0         0         0         0         0         0
         0         0         0         0         0         0         0         0
         0         0         0         0         0         0         0         0
         0         0         0         0         0         0         0         0
         0         0         0         0         0         0         0         0
         0         0         0         0         0         0         0         0
         0         0         0         0         0         0         0         0
         0         0         0         0         0         0         0         0
         0         0         0         0         0         0         0         0
         0         0         0         0         0         0         0         0
         0         0         0         0         0         0         0         0
         0         0         0         0         0         0         0         0
         0         0         0         0         0         0         0         0
         0         0         0         0         0         0         0         0
         0         0         0         0         0         0         0         0
         0         0         0         0         0         0         0         0
         0         0         0         0         0         0         0         0
         0         0         0         0         0         0         0         0
         0         0         0         0         0         0         0         0
         0         0         0         0         0         0         0         0
         0         0         0         0         0         0         0         0
         0         0         0         0         0         0         0         0
         0         0         0         0         0         0         0         0
         0         0         0         0         0         0         0         0
         0         0         0         0         0         0         0         0
         0         0         0         0         0         0         0         0
         0         0         0         0         0         0         0         0
         0         0         0         0         0         0         0         0
         0         0         0         0         0         0         0         0
         0         0         0         0         0         0         0         0
         0         0         0         0         0         0         0         0
         0         0         0         0         0         0         0         0
         0         0         0         0         0         0         0         0
         0         0         0         0         0         0         0         0
         0         0         0         0         0         0         0         0
         0         0         0         0         0         0         0         0
         0         0         0         0         0         0         0         0
         0         0         0         0         0         0         0         0
         0         0         0         0         0         0         0         0
         0         0         0         0         0         0         0         0
         0         0         0         0         0         0         0         0
         0         0         0         0         0         0         0         0
         0         0         0         0         0         0         0         0
         0         0         0         0         0         0         0         0
         0         0         0         0         0         0         0         0
         0         0         0         0         0         0         0         0
         0         0         0         0         0         0         0         0
         0         0         0         0         0         0         0         0
         0         0         0         0         0         0         0         0
         0         0         0         0         0         0         0         0
         0         0         0         0         0         0         0         0
         0         0         0         0         0         0         0         0
         0         0         0         0         0         0         0         0
         0         0         0         0         0         0         0         0
         0         0         0         0         0         0         0         0
         0         0         0         0         0         0         0         0
         0         0         0         0         0         0         0         0
         0         0         0         0         0         0         0         0
         0         0         0         0         0         0         0         0
         0         0         0         0         0         0         0         0
         0         0         0         0         0         0         0         0
         0         0         0         0         0         0         0         0
         0         0         0         0         0         0         0         0
         0         0         0         0         0         0         0         0
         0         0         0         0         0         0         0         0
         0         0         0         0         0         0         0         0
         0         0         0         0         0         0         0         0
         0         0         0         0         0         0         0         0
         0         0         0         0         0         0         0         0
         0         0         0         0         0         0         0         0
         0         0         0         0         0         0         0         0
         0         0         0         0         0         0         0         0
         0         0         0         0         0         0         0         0
         0         0         0         0         0         0         0         0
         0         0         0         0         0         0         0         0
         0         0         0         0         0         0         0         0
         0         0         0         0         0         0         0         0
         0         0         0         0         0         0         0         0
         0         0         0         0         0         0         0         0
         0         0         0         0         0         0         0         0
         0         0         0         0         0         0         0         0
         0         0         0         0         0         0         0         0
         0         0         0         0         0         0         0         0
         0         0         0         0         0         0         0         0
         0         0         0         0         0         0         0         0
         0         0         0         0         0         0         0         0
         0         0         0         0         0         0         0         0
         0         0         0         0         0         0         0         0
         0         0         0         0         0         0         0         0
         0         0         0         0         0         0         0         0
         0         0         0         0         0         0         0         0
         0         0         0         0         0         0         0         0
         0         0         0         0         0         0         0         0
         0         0         0         0         0         0         0         0
         0         0         0         0         0         0         0         0
         0         0         0         0         0         0         0         0
         0         0         0         0         0         0         0         0
         0         0         0         0         0         0         0         0
         0         0         0         0         0         0         0         0
         0         0         0         0         0         0         0         0
         0         0         0         0         0         0         0         0
         0         0         0         0         0         0         0         0
         0         0         0         0         0         0         0         0
         0         0         0         0         0         0         0         0
         0         0         0         0         0         0         0         0
         0         0         0         0         0         0         0         0
         0         0         0         0         0         0         0         0
         0         0         0         0         0         0         0         0
         0         0         0         0         0         0         0         0
         0         0         0         0         0         0         0         0
         0         0         0         0         0         0         0         0
         0         0         0         0         0         0         0         0
         0         0         0         0         0         0         0         0
         0         0         0         0         0         0         0         0
         0         0         0         0         0         0         0         0
         0         0         0         0         0         0         0         0
         0         0         0         0         0         0         0         0
         0         0         0         0         0         0         0         0
         0         0         0         0         0         0         0         0
         0         0         0         0         0         0         0         0
         0         0         0         0         0         0         0         0
         0         0         0         0         0         0         0         0
         0         0         0         0         0         0         0         0
         0         0         0         0         0         0         0         0
         0         0         0         0         0         0         0         0
         0         0         0         0         0         0         0         0
         0         0         0         0         0         0         0         0
         0         0         0         0         0         0         0         0
         0         0         0         0         0         0         0         0
         0         0         0         0         0         0         0         0
         0         0         0         0         0         0         0         0
         0         0         0         0         0         0         0         0
         0         0         0         0         0         0         0         0
         0         0         0         0         0         0         0         0
         0         0         0         0         0         0         0         0
         0         0         0         0         0         0         0         0
         0         0         0         0         0         0         0         0
         0         0         0         0         0         0         0         0
         0         0         0         0         0         0         0         0
         0         0         0         0         0         0         0         0
         0         0         0         0         0         0         0         0
         0         0         0         0         0         0         0         0
         0         0         0         0         0         0         0         0
         0         0         0         0         0         0         0         0
         0         0         0         0         0         0         0         0
         0         0         0         0         0         0         0         0
         0         0         0         0         0         0         0         0
         0         0         0         0         0         0         0         0
         0         0         0         0         0         0         0         0
         0         0         0         0         0         0         0         0
         0         0         0         0         0         0         0         0
         0         0         0         0         0         0         0         0
         0         0         0         0         0         0         0         0
         0         0         0         0         0         0         0         0
         0         0         0         0         0         0         0         0
         0         0         0         0         0         0         0         0
         0         0         0         0         0         0         0         0
         0         0         0         0         0         0         0         0
         0         0         0         0         0         0         0         0
         0         0         0         0         0         0         0         0
         0         0         0         0         0         0         0         0
         0         0         0         0         0         0         0         0
         0         0         0         0         0         0         0         0
         0         0         0         0         0         0         0         0
         0         0         0         0         0         0         0         0
         0         0         0         0         0         0         0         0
         0         0         0         0         0         0         0         0
         0         0         0         0         0         0         0         0
         0         0         0         0         0         0         0         0
         0         0         0         0         0         0         0         0
         0         0         0         0         0         0         0         0
         0         0         0         0         0         0         0         0
         0         0         0         0         0         0         0         0
         0         0         0         0         0         0         0         0
         0         0         0         0         0         0         0         0
         0         0         0         0         0         0         0         0
         0         0         0         0         0         0         0         0
         0         0         0         0         0         0         0         0
         0         0         0         0         0         0         0         0
         0         0         0         0         0         0         0         0
         0         0         0         0         0         0         0         0
         0         0         0         0         0         0         0         0
         0         0         0         0         0         0         0         0
         0         0         0         0         0         0         0         0
         0         0         0         0         0         0         0         0
         0         0         0         0         0         0         0         0
         0         0         0         0         0         0         0         0
         0         0         0         0         0         0         0         0
         0         0         0         0         0         0         0         0
         0         0         0         0         0         0         0         0
         0         0         0         0         0         0         0         0
         0         0         0         0         0         0         0         0
         0         0         0         0         0         0         0         0
         0         0         0         0         0         0         0         0
         0         0         0         0         0         0         0         0
         0         0         0         0         0         0         0         0
         0         0         0         0         0         0         0         0
         0         0         0         0         0         0         0         0
         0         0         0         0         0         0         0         0
         0         0         0         0         0         0         0         0
         0         0         0         0         0         0         0         0
         0         0         0         0         0         0         0         0
         0         0         0         0         0         0         0         0
         0         0         0         0         0         0         0         0
         0         0         0         0         0         0         0         0
         0         0         0         0         0         0         0         0
         0         0         0         0         0         0         0         0
         0         0         0         0         0         0         0         0
         0         0         0         0         0         0         0         0
         0         0         0         0         0         0         0         0
         0         0         0         0         0         0         0         0
         0         0         0         0         0         0         0         0
         0         0         0         0         0         0         0         0
         0         0         0         0         0         0         0         0
         0         0         0         0         0         0         0         0
         0         0         0         0         0         0         0         0
         0         0         0         0         0         0         0         0
         0         0         0         0         0         0         0         0
         0         0         0         0         0         0         0         0
         0         0         0         0         0         0         0         0
         0         0         0         0         0         0         0         0
         0         0         0         0         0         0         0         0
         0         0         0         0         0         0         0         0
         0         0         0         0         0         0         0         0
         0         0         0         0         0         0         0         0
         0         0         0         0         0         0         0         0
         0         0         0         0         0         0         0         0
         0         0         0         0         0         0         0         0
         0         0         0         0         0         0         0         0
         0         0         0         0         0         0         0         0
         0         0         0         0         0         0         0         0
         0         0         0         0         0         0         0         0
         0         0         0         0         0         0         0         0
         0         0         0         0         0         0         0         0
         0         0         0         0         0         0         0         0
         0         0         0         0         0         0         0         0
         0         0         0         0         0         0         0         0
         0         0         0         0         0         0         0         0
         0         0         0         0         0         0         0         0
         0         0         0         0         0         0         0         0
         0         0         0         0         0         0         0         0
         0         0         0         0         0         0         0         0
         0         0         0         0         0         0         0         0
         0         0         0         0         0         0         0         0
         0         0         0         0         0         0         0         0
         0         0         0         0         0         0         0         0
         0         0         0         0         0         0         0         0
         0         0         0         0         0         0         0         0
         0         0         0         0         0         0         0         0
         0         0         0         0         0         0         0         0
         0         0         0         0         0         0         0         0
         0         0         0         0         0         0         0         0
         0         0         0         0         0         0         0         0
         0         0         0         0         0         0         0         0
         0         0         0         0         0         0         0         0
         0         0         0         0         0         0         0         0
         0         0         0         0         0         0         0         0
         0         0         0         0         0         0         0         0
         0         0         0         0         0         0         0         0
         0         0         0         0         0         0         0         0
         0         0         0         0         0         0         0         0
         0         0         0         0         0         0         0         0
         0         0         0         0         0         0         0         0
         0         0         0         0         0         0         0         0
         0         0         0         0         0         0         0         0
         0         0         0         0         0         0         0         0
         0         0         0         0         0         0         0         0
         0         0         0         0         0         0         0         0
         0         0         0         0         0         0         0         0
         0         0         0         0         0         0         0         0
         0         0         0         0         0         0         0         0
         0         0         0         0         0         0         0         0
         0         0         0         0         0         0         0         0
         0         0         0         0         0         0         0         0
         0         0         0         0         0         0         0         0
         0         0         0         0         0         0         0         0
         0         0         0         0         0         0         0         0
         0         0         0         0         0         0         0         0
         0         0         0         0         0         0         0         0
         0         0         0         0         0         0         0         0
         0         0         0         0         0         0         0         0
         0         0         0         0         0         0         0         0
         0         0         0         0         0         0         0         0
         0         0         0         0         0         0         0         0
         0         0         0         0         0         0         0         0
         0         0         0         0         0         0         0         0
         0         0         0         0         0         0         0         0
         0         0         0         0         0         0         0         0
         0         0         0         0         0         0         0         0
         0         0         0         0         0         0         0         0
         0         0         0         0         0         0         0         0
         0         0         0         0         0         0         0         0
         0         0         0         0         0         0         0         0
         0         0         0         0         0         0         0         0
         0         0         0         0         0         0         0         0
         0         0         0         0         0         0         0         0
         0         0         0         0         0         0         0         0
         0         0         0         0         0         0         0         0
         0         0         0         0         0         0         0         0
         0         0         0         0         0         0         0         0
         0         0         0         0         0         0         0         0
         0         0         0         0         0         0         0         0
         0         0         0         0         0         0         0         0
         0         0         0         0         0         0         0         0
         0         0         0         0         0         0         0         0
         0         0         0         0         0         0         0         0
         0         0         0         0         0         0         0         0
         0         0         0         0         0         0         0         0
         0         0         0         0         0         0         0         0
         0         0         0         0         0         0         0         0
         0         0         0         0         0         0         0         0
         0         0         0         0         0         0         0         0
         0         0         0         0         0         0         0         0
         0         0         0         0         0         0         0         0
         0         0         0         0         0         0         0         0
         0         0         0         0         0         0         0         0
         0         0         0         0         0         0         0         0
         0         0         0         0         0         0         0         0
         0         0         0         0         0         0         0         0
         0         0         0         0         0         0         0         0
         0         0         0         0         0         0         0         0
         0         0         0         0         0         0         0         0
         0         0         0         0         0         0         0         0
         0         0         0         0         0         0         0         0
         0         0         0         0         0         0         0         0
         0         0         0         0         0         0         0         0
         0         0         0         0         0         0         0         0
         0         0         0         0         0         0         0         0
         0         0         0         0         0         0         0         0
         0         0         0         0         0         0         0         0
         0         0         0         0         0         0         0         0
         0         0         0         0         0         0         0         0
         0         0         0         0         0         0         0         0
         0         0         0         0         0         0         0         0
         0         0         0         0         0         0         0         0
         0         0         0         0         0         0         0         0
         0         0         0         0         0         0         0         0
         0         0         0         0         0         0         0         0
         0         0         0         0         0         0         0         0
         0         0         0         0         0         0         0         0
         0         0         0         0         0         0         0         0
         0         0         0         0         0         0         0         0
         0         0         0         0         0         0         0         0
         0         0         0         0         0         0         0         0
         0         0         0         0         0         0         0         0
         0         0         0         0         0         0         0         0
         0         0         0         0         0         0         0         0
         0         0         0         0         0         0         0         0
         0         0         0         0         0         0         0         0
         0         0         0         0         0         0         0         0
         0         0         0         0         0         0         0         0
         0         0         0         0         0         0         0         0
         0         0         0         0         0         0         0         0
         0         0         0         0         0         0         0         0
         0         0         0         0         0         0         0         0
         0         0         0         0         0         0         0         0
         0         0         0         0         0         0         0         0
         0         0         0         0         0         0         0         0
         0         0         0         0         0         0         0         0
         0         0         0         0         0         0         0         0
         0         0         0         0         0         0         0         0
         0         0         0         0         0         0         0         0
         0         0         0         0         0         0         0         0
         0         0         0         0         0         0         0         0
         0         0         0         0         0         0         0         0
         0         0         0         0         0         0         0         0
         0         0         0         0         0         0         0         0
         0         0         0         0         0         0         0         0
         0         0         0         0         0         0         0         0
         0         0         0         0         0         0         0         0
         0         0         0         0         0         0         0         0
         0         0         0         0         0         0         0         0
         0         0         0         0         0         0         0         0
         0         0         0         0         0         0         0         0
         0         0         0         0         0         0         0         0
         0         0         0         0         0         0         0         0
         0         0         0         0         0         0         0         0
         0         0         0         0         0         0         0         0
         0         0         0         0         0         0         0         0
         0         0         0         0         0         0         0         0
         0         0         0         0         0         0         0         0
         0         0         0         0         0         0         0         0
         0         0         0         0         0         0         0         0
         0         0         0         0         0         0         0         0
         0         0         0         0         0         0         0         0
         0         0         0         0         0         0         0         0
         0         0         0         0         0         0         0         0
         0         0         0         0         0         0         0         0
         0         0         0         0         0         0         0         0
         0         0         0         0         0         0         0         0
         0         0         0         0         0         0         0         0
         0         0         0         0         0         0         0         0
         0         0         0         0         0         0         0         0
         0         0         0         0         0         0         0         0
         0         0         0         0         0         0         0         0
         0         0         0         0         0         0         0         0
         0         0         0         0         0         0         0         0
         0         0         0         0         0         0         0         0
         0         0         0         0         0         0         0         0
         0         0         0         0         0         0         0         0
         0         0         0         0         0         0         0         0
         0         0         0         0         0         0         0         0
         0         0         0         0         0         0         0         0
         0         0         0         0         0         0         0         0
         0         0         0         0         0         0         0         0
         0         0         0         0         0         0         0         0
         0         0         0         0         0         0         0         0
         0         0         0         0         0         0         0         0
         0         0         0         0         0         0         0         0
         0         0         0         0         0         0         0         0
         0         0         0         0         0         0         0         0
         0         0         0         0         0         0         0         0
         0         0         0         0         0         0         0         0
         0         0         0         0         0         0         0         0
         0         0         0         0         0         0         0         0
         0         0         0         0         0         0         0         0
         0         0         0         0         0         0         0         0
         0         0         0         0         0         0         0         0
         0         0         0         0         0         0         0         0
         0         0         0         0         0         0         0         0
         0         0         0         0         0         0         0         0
         0         0         0         0         0         0         0         0
         0         0         0         0         0         0         0         0
         0         0         0         0         0         0         0         0
         0         0         0         0         0         0         0         0
         0         0         0         0         0         0         0         0
         0         0         0         0         0         0         0         0
         0         0         0         0         0         0         0         0
         0         0         0         0         0         0         0         0
         0         0         0         0         0         0         0         0
         0         0         0         0         0         0         0         0
         0         0         0         0         0         0         0         0
         0         0         0         0         0         0         0         0
         0         0         0         0         0         0         0         0
         0         0         0         0         0         0         0         0
         0         0         0         0         0         0         0         0
         0         0         0         0         0         0         0         0
         0         0         0         0         0         0         0         0
         0         0         0         0         0         0         0         0
         0         0         0         0         0         0         0         0
         0         0         0         0         0         0         0         0
         0         0         0         0         0         0         0         0
         0         0         0         0         0         0         0         0
         0         0         0         0         0         0         0         0
         0         0         0         0         0         0         0         0
         0         0         0         0         0         0         0         0
         0         0         0         0         0         0         0         0
         0         0         0         0         0         0         0         0
         0         0         0         0         0         0         0         0
         0         0         0         0         0         0         0         0
         0         0         0         0         0         0         0         0
         0         0         0         0         0         0         0         0
         0         0         0         0         0         0         0         0
         0         0         0         0         0         0         0         0
         0         0         0         0         0         0         0         0
         0         0         0         0         0         0         0         0
         0         0         0         0         0         0         0         0
         0         0         0         0         0         0         0         0
         0         0         0         0         0         0         0         0
         0         0         0         0         0         0         0         0
         0         0         0         0         0         0         0         0
         0         0         0         0         0         0         0         0
         0         0         0         0         0         0         0         0
         0         0         0         0         0         0         0         0
         0         0         0         0         0         0         0         0
         0         0         0         0         0         0         0         0
         0         0         0         0         0         0         0         0
         0         0         0         0         0         0         0         0
         0         0         0         0         0         0         0         0
         0         0         0         0         0         0         0         0
         0         0         0         0         0         0         0         0
         0         0         0         0         0         0         0         0
         0         0         0         0         0         0         0         0
         0         0         0         0         0         0         0         0
         0         0         0         0         0         0         0         0
         0         0         0         0         0         0         0         0
         0         0         0         0         0         0         0         0
         0         0         0         0         0         0         0         0
         0         0         0         0         0         0         0         0
         0         0         0         0         0         0         0         0
         0         0         0         0         0         0         0         0
         0         0         0         0         0         0         0         0
         0         0         0         0         0         0         0         0
         0         0         0         0         0         0         0         0
         0         0         0         0         0         0         0         0
         0         0         0         0         0         0         0         0
         0         0         0         0         0         0         0         0
         0         0         0         0         0         0         0         0
         0         0         0         0         0         0         0         0
         0         0         0         0         0         0         0         0
         0         0         0         0         0         0         0         0
         0         0         0         0         0         0         0         0
         0         0         0         0         0         0         0         0
         0         0         0         0         0         0         0         0
         0         0         0         0         0         0         0         0
         0         0         0         0         0         0         0         0
         0         0         0         0         0         0         0         0
         0         0         0         0         0         0         0         0
         0         0         0         0         0         0         0         0
         0         0         0         0         0         0         0         0
         0         0         0         0         0         0         0         0
         0         0         0         0         0         0         0         0
         0         0         0         0         0         0         0         0
         0         0         0         0         0         0         0         0
         0         0         0         0         0         0         0         0
         0         0         0         0         0         0         0         0
         0         0         0         0         0         0         0         0
         0         0         0         0         0         0         0         0
         0         0         0         0         0         0         0         0
         0         0         0         0         0         0         0         0
         0         0         0         0         0         0         0         0
         0         0         0         0         0         0         0         0
         0         0         0         0         0         0         0         0
         0         0         0         0         0         0         0         0
         0         0         0         0         0         0         0         0
         0         0         0         0         0         0         0         0
         0         0         0         0         0         0         0         0
         0         0         0         0         0         0         0         0
         0         0         0         0         0         0         0         0
         0         0         0         0         0         0         0         0
         0         0         0         0         0         0         0         0
         0         0         0         0         0         0         0         0
         0         0         0         0         0         0         0         0
         0         0         0         0         0         0         0         0
         0         0         0         0         0         0         0         0
         0         0         0         0         0         0         0         0
         0         0         0         0         0         0         0         0
         0         0         0         0         0         0         0         0
         0         0         0         0         0         0         0         0
         0         0         0         0         0         0         0         0
         0         0         0         0         0         0         0         0
         0         0         0         0         0         0         0         0
         0         0         0         0         0         0         0         0
         0         0         0         0         0         0         0         0
         0         0         0         0         0         0         0         0
         0         0         0         0         0         0         0         0
         0         0         0         0         0         0         0         0
         0         0         0         0         0         0         0         0
         0         0         0         0         0         0         0         0
         0         0         0         0         0         0         0         0
         0         0         0         0         0         0         0         0
         0         0         0         0         0         0         0         0
         0         0         0         0         0         0         0         0
         0         0         0         0         0         0         0         0
         0         0         0         0         0         0         0         0
         0         0         0         0         0         0         0         0
         0         0         0         0         0         0         0         0
         0         0         0         0         0         0         0         0
         0         0         0         0         0         0         0         0
         0         0         0         0         0         0         0         0
         0         0         0         0         0         0         0         0
         0         0         0         0         0         0         0         0
         0         0         0         0         0         0         0         0
         0         0         0         0         0         0         0         0
         0         0         0         0         0         0         0         0
         0         0         0         0         0         0         0         0
         0         0         0         0         0         0         0         0
         0         0         0         0         0         0         0         0
         0         0         0         0         0         0         0         0
         0         0         0         0         0         0         0         0
         0         0         0         0         0         0         0         0
         0         0         0         0         0         0         0         0
         0         0         0         0         0         0         0         0
         0         0         0         0         0         0         0         0
         0         0         0         0         0         0         0         0
         0         0         0         0         0         0         0         0
         0         0         0         0         0         0         0         0
         0         0         0         0         0         0         0         0
         0         0         0         0         0         0         0         0
         0         0         0         0         0         0         0         0
         0         0         0         0         0         0         0         0
         0         0         0         0         0         0         0         0
         0         0         0         0         0         0         0         0
         0         0         0         0         0         0         0         0
         0         0         0         0         0         0         0         0
         0         0         0         0         0         0         0         0
         0         0         0         0         0         0         0         0
         0         0         0         0         0         0         0         0
         0         0         0         0         0         0         0         0
         0         0         0         0         0         0         0         0
         0         0         0         0         0         0         0         0
         0         0         0         0         0         0         0         0
         0         0         0         0         0         0         0         0
         0         0         0         0         0         0         0         0
         0         0         0         0         0         0         0         0
         0         0         0         0         0         0         0         0
         0         0         0         0         0         0         0         0
         0         0         0         0         0         0         0         0
         0         0         0         0         0         0         0         0
         0         0         0         0         0         0         0         0
         0         0         0         0         0         0         0         0
         0         0         0         0         0         0         0         0
         0         0         0         0         0         0         0         0
         0         0         0         0         0         0         0         0
         0         0         0         0         0         0         0         0
         0         0         0         0         0         0         0         0
         0         0         0         0         0         0         0         0
         0         0         0         0         0         0         0         0
         0         0         0         0         0         0         0         0
         0         0         0         0         0         0         0         0
         0         0         0         0         0         0         0         0
         0         0         0         0         0         0         0         0
         0         0         0         0         0         0         0         0
         0         0         0         0         0         0         0         0
         0         0         0         0         0         0         0         0
         0         0         0         0         0         0         0         0
         0         0         0         0         0         0         0         0
         0         0         0         0         0         0         0         0
         0         0         0         0         0         0         0         0
         0         0         0         0         0         0         0         0
         0         0         0         0         0         0         0         0
         0         0         0         0         0         0         0         0
         0         0         0         0         0         0         0         0
         0         0         0         0         0         0         0         0
         0         0         0         0         0         0         0         0
         0         0         0         0         0         0         0         0
         0         0         0         0         0         0         0         0
         0         0         0         0         0         0         0         0
         0         0         0         0         0         0         0         0
         0         0         0         0         0         0         0         0
         0         0         0         0         0         0         0         0
         0         0         0         0         0         0         0         0
         0         0         0         0         0         0         0         0
         0         0         0         0         0         0         0         0
         0         0         0         0         0         0         0         0
         0         0         0         0         0         0         0         0
         0         0         0         0         0         0         0         0
         0         0         0         0         0         0         0         0
         0         0         0         0         0         0         0         0
         0         0         0         0         0         0         0         0
         0         0         0         0         0         0         0         0
         0         0         0         0         0         0         0         0
         0         0         0         0         0         0         0         0
         0         0         0         0         0         0         0         0
         0         0         0         0         0         0         0         0
         0         0         0         0         0         0         0         0
         0         0         0         0         0         0         0         0
         0         0         0         0         0         0         0         0
         0         0         0         0         0         0         0         0
         0         0         0         0         0         0         0         0
         0         0         0         0         0         0         0         0
         0         0         0         0         0         0         0         0
         0         0         0         0         0         0         0         0
         0         0         0         0         0         0         0         0
         0         0         0         0         0         0         0         0
         0         0         0         0         0         0         0         0
         0         0         0         0         0         0         0         0
         0         0         0         0         0         0         0         0
         0         0         0         0         0         0         0         0
         0         0         0         0         0         0         0         0
         0         0         0         0         0         0         0         0
         0         0         0         0         0         0         0         0
         0         0         0         0         0         0         0         0
         0         0         0         0         0         0         0         0
         0         0         0         0         0         0         0         0
         0         0         0         0         0         0         0         0
         0         0         0         0         0         0         0         0
         0         0         0         0         0         0         0         0
         0         0         0         0         0         0         0         0
         0         0         0         0         0         0         0         0
         0         0         0         0         0         0         0         0
         0         0         0         0         0         0         0         0
         0         0         0         0         0         0         0         0
         0         0         0         0         0         0         0         0
         0         0         0         0         0         0         0         0
         0         0         0         0         0         0         0         0
         0         0         0         0         0         0         0         0
         0         0         0         0         0         0         0         0
         0         0         0         0         0         0         0         0
         0         0         0         0         0         0         0         0
         0         0         0         0         0         0         0         0
         0         0         0         0         0         0         0         0
         0         0         0         0         0         0         0         0
         0         0         0         0         0         0         0         0
         0         0         0         0         0         0         0         0
         0         0         0         0         0         0         0         0
         0         0         0         0         0         0         0         0
         0         0         0         0         0         0         0         0
         0         0         0         0         0         0         0         0
         0         0         0         0         0         0         0         0
         0         0         0         0         0         0         0         0
         0         0         0         0         0         0         0         0
         0         0         0         0         0         0         0         0
         0         0         0         0         0         0         0         0
         0         0         0         0         0         0         0         0
         0         0         0         0         0         0         0         0
         0         0         0         0         0         0         0         0
         0         0         0         0         0         0         0         0
         0         0         0         0         0         0         0         0
         0         0         0         0         0         0         0         0
         0         0         0         0         0         0         0         0
         0         0         0         0         0         0         0         0
         0         0         0         0         0         0         0         0
         0         0         0         0         0         0         0         0
         0         0         0         0         0         0         0         0
         0         0         0         0         0         0         0         0
         0         0         0         0         0         0         0         0
         0         0         0         0         0         0         0         0
         0         0         0         0         0         0         0         0
         0         0         0         0         0         0         0         0
         0         0         0         0         0         0         0         0
         0         0         0         0         0         0         0         0
         0         0         0         0         0         0         0         0
         0         0         0         0         0         0         0         0
         0         0         0         0         0         0         0         0
         0         0         0         0         0         0         0         0
         0         0         0         0         0         0         0         0
         0         0         0         0         0         0         0         0
         0         0         0         0         0         0         0         0
         0         0         0         0         0         0         0         0
         0         0         0         0         0         0         0         0
         0         0         0         0         0         0         0         0
         0         0         0         0         0         0         0         0
         0         0         0         0         0         0         0         0
         0         0         0         0         0         0         0         0
         0         0         0         0         0         0         0         0
         0         0         0         0         0         0         0         0
         0         0         0         0         0         0         0         0
         0         0         0         0         0         0         0         0
         0         0         0         0         0         0         0         0
         0         0         0         0         0         0         0         0
         0         0         0         0         0         0         0         0
         0         0         0         0         0         0         0         0
         0         0         0         0         0         0         0         0
         0         0         0         0         0         0         0         0
         0         0         0         0         0         0         0         0
         0         0         0         0         0         0         0         0
         0         0         0         0         0         0         0         0
         0         0         0         0         0         0         0         0
         0         0         0         0         0         0         0         0
         0         0         0         0         0         0         0         0
         0         0         0         0         0         0         0         0
         0         0         0         0         0         0         0         0
         0         0         0         0         0         0         0         0
         0         0         0         0         0         0         0         0
         0         0         0         0         0         0         0         0
         0         0         0         0         0         0         0         0
         0         0         0         0         0         0         0         0
         0         0         0         0         0         0         0         0
         0         0         0         0         0         0         0         0
         0         0         0         0         0         0         0         0
         0         0         0         0         0         0         0         0
         0         0         0         0         0         0         0         0
         0         0         0         0         0         0         0         0
         0         0         0         0         0         0         0         0
         0         0         0         0         0         0         0         0
         0         0         0         0         0         0         0         0
         0         0         0         0         0         0         0         0
         0         0         0         0         0         0         0         0
         0         0         0         0         0         0         0         0
         0         0         0         0         0         0         0         0
         0         0         0         0         0         0         0         0
         0         0         0         0         0         0         0         0
         0         0         0         0         0         0         0         0
         0         0         0         0         0         0         0         0
         0         0         0         0         0         0         0         0
         0         0         0         0         0         0         0         0
         0         0         0         0         0         0         0         0
         0         0         0         0         0         0         0         0
         0         0         0         0         0         0         0         0
         0         0         0         0         0         0         0         0
         0         0         0         0         0         0         0         0
         0         0         0         0         0         0         0         0
         0         0         0         0         0         0         0         0
         0         0         0         0         0         0         0         0
         0         0         0         0         0         0         0         0
         0         0         0         0         0         0         0         0
         0         0         0         0         0         0         0         0
         0         0         0         0         0         0         0         0
         0         0         0         0         0         0         0         0
         0         0         0         0         0         0         0         0
         0         0         0         0         0         0         0         0
         0         0         0         0         0         0         0         0
         0         0         0         0         0         0         0         0
         0         0         0         0         0         0         0         0
         0         0         0         0         0         0         0         0
         0         0         0         0         0         0         0         0
         0         0         0         0         0         0         0         0
         0         0         0         0         0         0         0         0
         0         0         0         0         0         0         0         0
         0         0         0         0         0         0         0         0
         0         0         0         0         0         0         0         0
         0         0         0         0         0         0         0         0
         0         0         0         0         0         0         0         0
         0         0         0         0         0         0         0         0
         0         0         0         0         0         0         0         0
         0         0         0         0         0         0         0         0
         0         0         0         0         0         0         0         0
         0         0         0         0         0         0         0         0
         0         0         0         0         0         0         0         0
         0         0         0         0         0         0         0         0
         0         0         0         0         0         0         0         0
         0         0         0         0         0         0         0         0
         0         0         0         0         0         0         0         0
         0         0         0         0         0         0         0         0
         0         0         0         0         0         0         0         0
         0         0         0         0         0         0         0         0
         0         0         0         0         0         0         0         0
         0         0         0         0         0         0         0         0
         0         0         0         0         0         0         0         0
         0         0         0         0         0         0         0         0
         0         0         0         0         0         0         0         0
         0         0         0         0         0         0         0         0
         0         0         0         0         0         0         0         0
         0         0         0         0         0         0         0         0
         0         0         0         0         0         0         0         0
         0         0         0         0         0         0         0         0
         0         0         0         0         0         0         0         0
         0         0         0         0         0         0         0         0
         0         0         0         0         0         0         0         0
         0         0         0         0         0         0         0         0
         0         0         0         0         0         0         0         0
         0         0         0         0         0         0         0         0
         0         0         0         0         0         0         0         0
         0         0         0         0         0         0         0         0
         0         0         0         0         0         0         0         0
         0         0         0         0         0         0         0         0
         0         0         0         0         0         0         0         0
         0         0         0         0         0         0         0         0
         0         0         0         0         0         0         0         0
         0         0         0         0         0         0         0         0
         0         0         0         0         0         0         0         0
         0         0         0         0         0         0         0         0
         0         0         0         0         0         0         0         0
         0         0         0         0         0         0         0         0
         0         0         0         0         0         0         0         0
         0         0         0         0         0         0         0         0
         0         0         0         0         0         0         0         0
         0         0         0         0         0         0         0         0
         0         0         0         0         0         0         0         0
         0         0         0         0         0         0         0         0
         0         0         0         0         0         0         0         0
         0         0         0         0         0         0         0         0
         0         0         0         0         0         0         0         0
         0         0         0         0         0         0         0         0
         0         0         0         0         0         0         0         0
         0         0         0         0         0         0         0         0
         0         0         0         0         0         0         0         0
         0         0         0         0         0         0         0         0
         0         0         0         0         0         0         0         0
         0         0         0         0         0         0         0         0
         0         0         0         0         0         0         0         0
         0         0         0         0         0         0         0         0
         0         0         0         0         0         0         0         0
         0         0         0         0         0         0         0         0
         0         0         0         0         0         0         0         0
         0         0         0         0         0         0         0         0
         0         0         0         0         0         0         0         0
         0         0         0         0         0         0         0         0
         0         0         0         0         0         0         0         0
         0         0         0         0         0         0         0         0
         0         0         0         0         0         0         0         0
         0         0         0         0         0         0         0         0
         0         0         0         0         0         0         0         0
         0         0         0         0         0         0         0         0
         0         0         0         0         0         0         0         0
         0         0         0         0         0         0         0         0
         0         0         0         0         0         0         0         0
         0         0         0         0         0         0         0         0
         0         0         0         0         0         0         0         0
         0         0         0         0         0         0         0         0
         0         0         0         0         0         0         0         0
         0         0         0         0         0         0         0         0
         0         0         0         0         0         0         0         0
         0         0         0         0         0         0         0         0
         0         0         0         0         0         0         0         0
         0         0         0         0         0         0         0         0
         0         0         0         0         0         0         0         0
         0         0         0         0         0         0         0         0
         0         0         0         0         0         0         0         0
         0         0         0         0         0         0         0         0
         0         0         0         0         0         0         0         0
         0         0         0         0         0         0         0         0
         0         0         0         0         0         0         0         0
         0         0         0         0         0         0         0         0
         0         0         0         0         0         0         0         0
         0         0         0         0         0         0         0         0
         0         0         0         0         0         0         0         0
         0         0         0         0         0         0         0         0
         0         0         0         0         0         0         0         0
         0         0         0         0         0         0         0         0
         0         0         0         0         0         0         0         0
         0         0         0         0         0         0         0         0
         0         0         0         0         0         0         0         0
         0         0         0         0         0         0         0         0
         0         0         0         0         0         0         0         0
         0         0         0         0         0         0         0         0
         0         0         0         0         0         0         0         0
         0         0         0         0         0         0         0         0
         0         0         0         0         0         0         0         0
         0         0         0         0         0         0         0         0
         0         0         0         0         0         0         0         0
         0         0         0         0         0         0         0         0
         0         0         0         0         0         0         0         0
         0         0         0         0         0         0         0         0
         0         0         0         0         0         0         0         0
         0         0         0         0         0         0         0         0
         0         0         0         0         0         0         0         0
         0         0         0         0         0         0         0         0
         0         0         0         0         0         0         0         0
         0         0         0         0         0         0         0         0
         0         0         0         0         0         0         0         0
         0         0         0         0         0         0         0         0
         0         0         0         0         0         0         0         0
         0         0         0         0         0         0         0         0
         0         0         0         0         0         0         0         0
         0         0         0         0         0         0         0         0
         0         0         0         0         0         0         0         0
         0         0         0         0         0         0         0         0
         0         0         0         0         0         0         0         0
         0         0         0         0         0         0         0         0
         0         0         0         0         0         0         0         0
         0         0         0         0         0         0         0         0
         0         0         0         0         0         0         0         0
         0         0         0         0         0         0         0         0
         0         0         0         0         0         0         0         0
         0         0         0         0         0         0         0         0
         0         0         0         0         0         0         0         0
         0         0         0         0         0         0         0         0
         0         0         0         0         0         0         0         0
         0         0         0         0         0         0         0         0
         0         0         0         0         0         0         0         0
         0         0         0         0         0         0         0         0
         0         0         0         0         0         0         0         0
         0         0         0         0         0         0         0         0
         0         0         0         0         0         0         0         0
         0         0         0         0         0         0         0         0
         0         0         0         0         0         0         0         0
         0         0         0         0         0         0         0         0
         0         0         0         0         0         0         0         0
         0         0         0         0         0         0         0         0
         0         0         0         0         0         0         0         0
         0         0         0         0         0         0         0         0
         0         0         0         0         0         0         0         0
         0         0         0         0         0         0         0         0
         0         0         0         0         0         0         0         0
         0         0         0         0         0         0         0         0
         0         0         0         0         0         0         0         0
         0         0         0         0         0         0         0         0
         0         0         0         0         0         0         0         0
         0         0         0         0         0         0         0         0
         0         0         0         0         0         0         0         0
         0         0         0         0         0         0         0         0
         0         0         0         0         0         0         0         0
         0         0         0         0         0         0         0         0
         0         0         0         0         0         0         0         0
         0         0         0         0         0         0         0         0
         0         0         0         0         0         0         0         0
         0         0         0         0         0         0         0         0
         0         0         0         0         0         0         0         0
         0         0         0         0         0         0         0         0
         0         0         0         0         0         0         0         0
         0         0         0         0         0         0         0         0
         0         0         0         0         0         0         0         0
         0         0         0         0         0         0         0         0
         0         0         0         0         0         0         0         0
         0         0         0         0         0         0         0         0
         0         0         0         0         0         0         0         0
         0         0         0         0         0         0         0         0
         0         0         0         0         0         0         0         0
         0         0         0         0         0         0         0         0
         0         0         0         0         0         0         0         0
         0         0         0         0         0         0         0         0
         0         0         0         0         0         0         0         0
         0         0         0         0         0         0         0         0
         0         0         0         0         0         0         0         0
         0         0         0         0         0         0         0         0
         0         0         0         0         0         0         0         0
         0         0         0         0         0         0         0         0
         0         0         0         0         0         0         0         0
         0         0         0         0         0         0         0         0
         0         0         0         0         0         0         0         0
         0         0         0         0         0         0         0         0
         0         0         0         0         0         0         0         0
         0         0         0         0         0         0         0         0
         0         0         0         0         0         0         0         0
         0         0         0         0         0         0         0         0
         0         0         0         0         0         0         0         0
         0         0         0         0         0         0         0         0
         0         0         0         0         0         0         0         0
         0         0         0         0         0         0         0         0
         0         0         0         0         0         0         0         0
         0         0         0         0         0         0         0         0
         0         0         0         0         0         0         0         0
         0         0         0         0         0         0         0         0
         0         0         0         0         0         0         0         0
         0         0         0         0         0         0         0         0
         0         0         0         0         0         0         0         0
         0         0         0         0         0         0         0         0
         0         0         0         0         0         0         0         0
         0         0         0         0         0         0         0         0
         0         0         0         0         0         0         0         0
         0         0         0         0         0         0         0         0
         0         0         0         0         0         0         0         0
         0         0         0         0         0         0         0         0
         0         0         0         0         0         0         0         0
         0         0         0         0         0         0         0         0
         0         0         0         0         0         0         0         0
         0         0         0         0         0         0         0         0
         0         0         0         0         0         0         0         0
         0         0         0         0         0         0         0         0
         0         0         0         0         0         0         0         0
         0         0         0         0         0         0         0         0
         0         0         0         0         0         0         0         0
         0         0         0         0         0         0         0         0
         0         0         0         0         0         0         0         0
         0         0         0         0         0         0         0         0
         0         0         0         0         0         0         0         0
         0         0         0         0         0         0         0         0
         0         0         0         0         0         0         0         0
         0         0         0         0         0         0         0         0
         0         0         0         0         0         0         0         0
         0         0         0         0         0         0         0         0
         0         0         0         0         0         0         0         0
         0         0         0         0         0         0         0         0
         0         0         0         0         0         0         0         0
         0         0         0         0         0         0         0         0
         0         0         0         0         0         0         0         0
         0         0         0         0         0         0         0         0
         0         0         0         0         0         0         0         0
         0         0         0         0         0         0         0         0
         0         0         0         0         0         0         0         0
         0         0         0         0         0         0         0         0
         0         0         0         0         0         0         0         0
         0         0         0         0         0         0         0         0
         0         0         0         0         0         0         0         0
         0         0         0         0         0         0         0         0
         0         0         0         0         0         0         0         0
         0         0         0         0         0         0         0         0
         0         0         0         0         0         0         0         0
         0         0         0         0         0         0         0         0
         0         0         0         0         0         0         0         0
         0         0         0         0         0         0         0         0
         0         0         0         0         0         0         0         0
         0         0         0         0         0         0         0         0
         0         0         0         0         0         0         0         0
         0         0         0         0         0         0         0         0
         0         0         0         0         0         0         0         0
         0         0         0         0         0         0         0         0
         0         0         0         0         0         0         0         0
         0         0         0         0         0         0         0         0
         0         0         0         0         0         0         0         0
         0         0         0         0         0         0         0         0
         0         0         0         0         0         0         0         0
         0         0         0         0         0         0         0         0
         0         0         0         0         0         0         0         0
         0         0         0         0         0         0         0         0
         0         0         0         0         0         0         0         0
         0         0         0         0         0         0         0         0
         0         0         0         0         0         0         0         0
         0         0         0         0         0         0         0         0
         0         0         0         0         0         0         0         0
         0         0         0         0         0         0         0         0
         0         0         0         0         0         0         0         0
         0         0         0         0         0         0         0         0
         0         0         0         0         0         0         0         0
         0         0         0         0         0         0         0         0
         0         0         0         0         0         0         0         0
         0         0         0         0         0         0         0         0
         0         0         0         0         0         0         0         0
         0         0         0         0         0         0         0         0
         0         0         0         0         0         0         0         0
         0         0         0         0         0         0         0         0
         0         0         0         0         0         0         0         0
         0         0         0         0         0         0         0         0
         0         0         0         0         0         0         0         0
         0         0         0         0         0         0         0         0
         0         0         0         0         0         0         0         0
         0         0         0         0         0         0         0         0
         0         0         0         0         0         0         0         0
         0         0         0         0         0         0         0         0
         0         0         0         0         0         0         0         0
         0         0         0         0         0         0         0         0
         0         0         0         0         0         0         0         0
         0         0         0         0         0         0         0         0
         0         0         0         0         0         0         0         0
         0         0         0         0         0         0         0         0
         0         0         0         0         0         0         0         0
         0         0         0         0         0         0         0         0
         0         0         0         0         0         0         0         0
         0         0         0         0         0         0         0         0
         0         0         0         0         0         0         0         0
         0         0         0         0         0         0         0         0
         0         0         0         0         0         0         0         0
         0         0         0         0         0         0         0         0
         0         0         0         0         0         0         0         0
         0         0         0         0         0         0         0         0
         0         0         0         0         0         0         0         0
         0         0         0         0         0         0         0         0
         0         0         0         0         0         0         0         0
         0         0         0         0         0         0         0         0
         0         0         0         0         0         0         0         0
         0         0         0         0         0         0         0         0
         0         0         0         0         0         0         0         0
         0         0         0         0         0         0         0         0
         0         0         0         0         0         0         0         0
         0         0         0         0         0         0         0         0
         0         0         0         0         0         0         0         0
         0         0         0         0         0         0         0         0
         0         0         0         0         0         0         0         0
         0         0         0         0         0         0         0         0
         0         0         0         0         0         0         0         0
         0         0         0         0         0         0         0         0
         0         0         0         0         0         0         0         0
         0         0         0         0         0         0         0         0
         0         0         0         0         0         0         0         0
         0         0         0         0         0         0         0         0
         0         0         0         0         0         0         0         0
         0         0         0         0         0         0         0         0
         0         0         0         0         0         0         0         0
         0         0         0         0         0         0         0         0
         0         0         0         0         0         0         0         0
         0         0         0         0         0         0         0         0
         0         0         0         0         0         0         0         0
         0         0         0         0         0         0         0         0
         0         0         0         0         0         0         0         0
         0         0         0         0         0         0         0         0
         0         0         0         0         0         0         0         0
         0         0         0         0         0         0         0         0
         0         0         0         0         0         0         0         0
         0         0         0         0         0         0         0         0
         0         0         0         0         0         0         0         0
         0         0         0         0         0         0         0         0
         0         0         0         0         0         0         0         0
         0         0         0         0         0         0         0         0
         0         0         0         0         0         0         0         0
         0         0         0         0         0         0         0         0
         0         0         0         0         0         0         0         0
         0         0         0         0         0         0         0         0
         0         0         0         0         0         0         0         0
         0         0         0         0         0         0         0         0
         0         0         0         0         0         0         0         0
         0         0         0         0         0         0         0         0
         0         0         0         0         0         0         0         0
         0         0         0         0         0         0         0         0
         0         0         0         0         0         0         0         0
         0         0         0         0         0         0         0         0
         0         0         0         0         0         0         0         0
         0         0         0         0         0         0         0         0
         0         0         0         0         0         0         0         0
         0         0         0         0         0         0         0         0
         0         0         0         0         0         0         0         0
         0         0         0         0         0         0         0         0
         0         0         0         0         0         0         0         0
         0         0         0         0         0         0         0         0
         0         0         0         0         0         0         0         0
         0         0         0         0         0         0         0         0
         0         0         0         0         0         0         0         0
         0         0         0         0         0         0         0         0
         0         0         0         0         0         0         0         0
         0         0         0         0         0         0         0         0
         0         0         0         0         0         0         0         0
         0         0         0         0         0         0         0         0
         0         0         0         0         0         0         0         0
         0         0         0         0         0         0         0         0
         0         0         0         0         0         0         0         0
         0         0         0         0         0         0         0         0
         0         0         0         0         0         0         0         0
         0         0         0         0         0         0         0         0
         0         0         0         0         0         0         0         0
         0         0         0         0         0         0         0         0
         0         0         0         0         0         0         0         0
         0         0         0         0         0         0         0         0
         0         0         0         0         0         0         0         0
         0         0         0         0         0         0         0         0
         0         0         0         0         0         0         0         0
         0         0         0         0         0         0         0         0
         0         0         0         0         0         0         0         0
         0         0         0         0         0         0         0         0
         0         0         0         0         0         0         0         0
         0         0         0         0         0         0         0         0
         0         0         0         0         0         0         0         0
         0         0         0         0         0         0         0         0
         0         0         0         0         0         0         0         0
         0         0         0         0         0         0         0         0
         0         0         0         0         0         0         0         0
         0         0         0         0         0         0         0         0
         0         0         0         0         0         0         0         0
         0         0         0         0         0         0         0         0
         0         0         0         0         0         0         0         0
         0         0         0         0         0         0         0         0
         0         0         0         0         0         0         0         0
         0         0         0         0         0         0         0         0
         0         0         0         0         0         0         0         0
         0         0         0         0         0         0         0         0
         0         0         0         0         0         0         0         0
         0         0         0         0         0         0         0         0
         0         0         0         0         0         0         0         0
         0         0         0         0         0         0         0         0
         0         0         0         0         0         0         0         0
         0         0         0         0         0         0         0         0
         0         0         0         0         0         0         0         0
         0         0         0         0         0         0         0         0
         0         0         0         0         0         0         0         0
         0         0         0         0         0         0         0         0
         0         0         0         0         0         0         0         0
         0         0         0         0         0         0         0         0
         0         0         0         0         0         0         0         0
         0         0         0         0         0         0         0         0
         0         0         0         0         0         0         0         0
         0         0         0         0         0         0         0         0
         0         0         0         0         0         0         0         0
         0         0         0         0         0         0         0         0
         0         0         0         0         0         0         0         0
         0         0         0         0         0         0         0         0
         0         0         0         0         0         0         0         0
         0         0         0         0         0         0         0         0
         0         0         0         0         0         0         0         0
         0         0         0         0         0         0         0         0
         0         0         0         0         0         0         0         0
         0         0         0         0         0         0         0         0
         0         0         0         0         0         0         0         0
         0         0         0         0         0         0         0         0
         0         0         0         0         0         0         0         0
         0         0         0         0         0         0         0         0
         0         0         0         0         0         0         0         0
         0         0         0         0         0         0         0         0
         0         0         0         0         0         0         0         0
         0         0         0         0         0         0         0         0
         0         0         0         0         0         0         0         0
         0         0         0         0         0         0         0         0
         0         0         0         0         0         0         0         0
         0         0         0         0         0         0         0         0
         0         0         0         0         0         0         0         0
         0         0         0         0         0         0         0         0
         0         0         0         0         0         0         0         0
         0         0         0         0         0         0         0         0
         0         0         0         0         0         0         0         0
         0         0         0         0         0         0         0         0
         0         0         0         0         0         0         0         0
         0         0         0         0         0         0         0         0
         0         0         0         0         0         0         0         0
         0         0         0         0         0         0         0         0
         0         0         0         0         0         0         0         0
         0         0         0         0         0         0         0         0
         0         0         0         0         0         0         0         0
         0         0         0         0         0         0         0         0
         0         0         0         0         0         0         0         0
         0         0         0         0         0         0         0         0
         0         0         0         0         0         0         0         0
         0         0         0         0         0         0         0         0
         0         0         0         0         0         0         0         0
         0         0         0         0         0         0         0         0
         0         0         0         0         0         0         0         0
         0         0         0         0         0         0         0         0
         0         0         0         0         0         0         0         0
         0         0         0         0         0         0         0         0
         0         0         0         0         0         0         0         0
         0         0         0         0         0         0         0         0
         0         0         0         0         0         0         0         0
         0         0         0         0         0         0         0         0
         0         0         0         0         0         0         0         0
         0         0         0         0         0         0         0         0
         0         0         0         0         0         0         0         0
         0         0         0         0         0         0         0         0
         0         0         0         0         0         0         0         0
         0         0         0         0         0         0         0         0
         0         0         0         0         0         0         0         0
         0         0         0         0         0         0         0         0
         0         0         0         0         0         0         0         0
         0         0         0         0         0         0         0         0
         0         0         0         0         0         0         0         0
         0         0         0         0         0         0         0         0
         0         0         0         0         0         0         0         0
         0         0         0         0         0         0         0         0
         0         0         0         0         0         0         0         0
         0         0         0         0         0         0         0         0
         0         0         0         0         0         0         0         0
         0         0         0         0         0         0         0         0
         0         0         0         0         0         0         0         0
         0         0         0         0         0         0         0         0
         0         0         0         0         0         0         0         0
         0         0         0         0         0         0         0         0
         0         0         0         0         0         0         0         0
         0         0         0         0         0         0         0         0
         0         0         0         0         0         0         0         0
         0         0         0         0         0         0         0         0
         0         0         0         0         0         0         0         0
         0         0         0         0         0         0         0         0
         0         0         0         0         0         0         0         0
         0         0         0         0         0         0         0         0
         0         0         0         0         0         0         0         0
         0         0         0         0         0         0         0         0
         0         0         0         0         0         0         0         0
         0         0         0         0         0         0         0         0
         0         0         0         0         0         0         0         0
         0         0         0         0         0         0         0         0
         0         0         0         0         0         0         0         0
         0         0         0         0         0         0         0         0
         0         0         0         0         0         0         0         0
         0         0         0         0         0         0         0         0
         0         0         0         0         0         0         0         0
         0         0         0         0         0         0         0         0
         0         0         0         0         0         0         0         0
         0         0         0         0         0         0         0         0
         0         0         0         0         0         0         0         0
         0         0         0         0         0         0         0         0
         0         0         0         0         0         0         0         0
         0         0         0         0         0         0         0         0
         0         0         0         0         0         0         0         0
         0         0         0         0         0         0         0         0
         0         0         0         0         0         0         0         0
         0         0         0         0         0         0         0         0
         0         0         0         0         0         0         0         0
         0         0         0         0         0         0         0         0
         0         0         0         0         0         0         0         0
         0         0         0         0         0         0         0         0
         0         0         0         0         0         0         0         0
         0         0         0         0         0         0         0         0
         0         0         0         0         0         0         0         0
         0         0         0         0         0         0         0         0
         0         0         0         0         0         0         0         0
         0         0         0         0         0         0         0         0
         0         0         0         0         0         0         0         0
         0         0         0         0         0         0         0         0
         0         0         0         0         0         0         0         0
         0         0         0         0         0         0         0         0
         0         0         0         0         0         0         0         0
         0         0         0         0         0         0         0         0
         0         0         0         0         0         0         0         0
         0         0         0         0         0         0         0         0
         0         0         0         0         0         0         0         0
         0         0         0         0         0         0         0         0
         0         0         0         0         0         0         0         0
         0         0         0         0         0         0         0         0
         0         0         0         0         0         0         0         0
         0         0         0         0         0         0         0         0
         0         0         0         0         0         0         0         0
         0         0         0         0         0         0         0         0
         0         0         0         0         0         0         0         0
         0         0         0         0         0         0         0         0
         0         0         0         0         0         0         0         0
         0         0         0         0         0         0         0         0
         0         0         0         0         0         0         0         0
         0         0         0         0         0         0         0         0
         0         0         0         0         0         0         0         0
         0         0         0         0         0         0         0         0
         0         0         0         0         0         0         0         0
         0         0         0         0         0         0         0         0
         0         0         0         0         0         0         0         0
         0         0         0         0         0         0         0         0
         0         0         0         0         0         0         0         0
         0         0         0         0         0         0         0         0
         0         0         0         0         0         0         0         0
         0         0         0         0         0         0         0         0
         0         0         0         0         0         0         0         0
         0         0         0         0         0         0         0         0
         0         0         0         0         0         0         0         0
         0         0         0         0         0         0         0         0
         0         0         0         0         0         0         0         0
         0         0         0         0         0         0         0         0
         0         0         0         0         0         0         0         0
         0         0         0         0         0         0         0         0
         0         0         0         0         0         0         0         0
         0         0         0         0         0         0         0         0
         0         0         0         0         0         0         0         0
         0         0         0         0         0         0         0         0
         0         0         0         0         0         0         0         0
         0         0         0         0         0         0         0         0
         0         0         0         0         0         0         0         0
         0         0         0         0         0         0         0         0
         0         0         0         0         0         0         0         0
         0         0         0         0         0         0         0         0
         0         0         0         0         0         0         0         0
         0         0         0         0         0         0         0         0
         0         0         0         0         0         0         0         0
         0         0         0         0         0         0         0         0
         0         0         0         0         0         0         0         0
         0         0         0         0         0         0         0         0
         0         0         0         0         0         0         0         0
         0         0         0         0         0         0         0         0
         0         0         0         0         0         0         0         0
         0         0         0         0         0         0         0         0
         0         0         0         0         0         0         0         0
         0         0         0         0         0         0         0         0
         0         0         0         0         0         0         0         0
         0         0         0         0         0         0         0         0
         0         0         0         0         0         0         0         0
         0         0         0         0         0         0         0         0
         0         0         0         0         0         0         0         0
         0         0         0         0         0         0         0         0
         0         0         0         0         0         0         0         0
         0         0         0         0         0         0         0         0
         0         0         0         0         0         0         0         0
         0         0         0         0         0         0         0         0
         0         0         0         0         0         0         0         0
         0         0         0         0         0         0         0         0
         0         0         0         0         0         0         0         0
         0         0         0         0         0         0         0         0
         0         0         0         0         0         0         0         0
         0         0         0         0         0         0         0         0
         0         0         0         0         0         0         0         0
         0         0         0         0         0         0         0         0
         0         0         0         0         0         0         0         0
         0         0         0         0         0         0         0         0
         0         0         0         0         0         0         0         0
         0         0         0         0         0         0         0         0
         0         0         0         0         0         0         0         0
         0         0         0         0         0         0         0         0
         0         0         0         0         0         0         0         0
         0         0         0         0         0         0         0         0
         0         0         0         0         0         0         0         0
         0         0         0         0         0         0         0         0
         0         0         0         0         0         0         0         0
         0         0         0         0         0         0         0         0
         0         0         0         0         0         0         0         0
         0         0         0         0         0         0         0         0
         0         0         0         0         0         0         0         0
         0         0         0         0         0         0         0         0
         0         0         0         0         0         0         0         0
         0         0         0         0         0         0         0         0
         0         0         0         0         0         0         0         0
         0         0         0         0         0         0         0         0
         0         0         0         0         0         0         0         0
         0         0         0         0         0         0         0         0
         0         0         0         0         0         0         0         0
         0         0         0         0         0         0         0         0
         0         0         0         0         0         0         0         0
         0         0         0         0         0         0         0         0
         0         0         0         0         0         0         0         0
         0         0         0         0         0         0         0         0
         0         0         0         0         0         0         0         0
         0         0         0         0         0         0         0         0
         0         0         0         0         0         0         0         0
         0         0         0         0         0         0         0         0
         0         0         0         0         0         0         0         0
         0         0         0         0         0         0         0         0
         0         0         0         0         0         0         0         0
         0         0         0         0         0         0         0         0
         0         0         0         0         0         0         0         0
         0         0         0         0         0         0         0         0
         0         0         0         0         0         0         0         0
         0         0         0         0         0         0         0         0
         0         0         0         0         0         0         0         0
         0         0         0         0         0         0         0         0
         0         0         0         0         0         0         0         0
         0         0         0         0         0         0         0         0
         0         0         0         0         0         0         0         0
         0         0         0         0         0         0         0         0
         0         0         0         0         0         0         0         0
         0         0         0         0         0         0         0         0
         0         0         0         0         0         0         0         0
         0         0         0         0         0         0         0         0
         0         0         0         0         0         0         0         0
         0         0         0         0         0         0         0         0
         0         0         0         0         0         0         0         0
         0         0         0         0         0         0         0         0
         0         0         0         0         0         0         0         0
         0         0         0         0         0         0         0         0
         0         0         0         0         0         0         0         0
         0         0         0         0         0         0         0         0
         0         0         0         0         0         0         0         0
         0         0         0         0         0         0         0         0
         0         0         0         0         0         0         0         0
         0         0         0         0         0         0         0         0
         0         0         0         0         0         0         0         0
         0         0         0         0         0         0         0         0
         0         0         0         0         0         0         0         0
         0         0         0         0         0         0         0         0
         0         0         0         0         0         0         0         0
         0         0         0         0         0         0         0         0
         0         0         0         0         0         0         0         0
         0         0         0         0         0         0         0         0
         0         0         0         0         0         0         0         0
         0         0         0         0         0         0         0         0
         0         0         0         0         0         0         0         0
         0         0         0         0         0         0         0         0
         0         0         0         0         0         0         0         0
         0         0         0         0         0         0         0         0
         0         0         0         0         0         0         0         0
         0         0         0         0         0         0         0         0
         0         0         0         0         0         0         0         0
         0         0         0         0         0         0         0         0
         0         0         0         0         0         0         0         0
         0         0         0         0         0         0         0         0
         0         0         0         0         0         0         0         0
         0         0         0         0         0         0         0         0
         0         0         0         0         0         0         0         0
         0         0         0         0         0         0         0         0
         0         0         0         0         0         0         0         0
         0         0         0         0         0         0         0         0
         0         0         0         0         0         0         0         0
         0         0         0         0         0         0         0         0
         0         0         0         0         0         0         0         0
         0         0         0         0         0         0         0         0
         0         0         0         0         0         0         0         0
         0         0         0         0         0         0         0         0
         0         0         0         0         0         0         0         0
         0         0         0         0         0         0         0         0
         0         0         0         0         0         0         0         0
         0         0         0         0         0         0         0         0
         0         0         0         0         0         0         0         0
         0         0         0         0         0         0         0         0
         0         0         0         0         0         0         0         0
         0         0         0         0         0         0         0         0
         0         0         0         0         0         0         0         0
         0         0         0         0         0         0         0         0
         0         0         0         0         0         0         0         0
         0         0         0         0         0         0         0         0
         0         0         0         0         0         0         0         0
         0         0         0         0         0         0         0         0
         0         0         0         0         0         0         0         0
         0         0         0         0         0         0         0         0
         0         0         0         0         0         0         0         0
         0         0         0         0         0         0         0         0
         0         0         0         0         0         0         0         0
         0         0         0         0         0         0         0         0
         0         0         0         0         0         0         0         0
         0         0         0         0         0         0         0         0
         0         0         0         0         0         0         0         0
         0         0         0         0         0         0         0         0
         0         0         0         0         0         0         0         0
         0         0         0         0         0         0         0         0
         0         0         0         0         0         0         0         0
         0         0         0         0         0         0         0         0
         0         0         0         0         0         0         0         0
         0         0         0         0         0         0         0         0
         0         0         0         0         0         0         0         0
         0         0         0         0         0         0         0         0
         0         0         0         0         0         0         0         0
         0         0         0         0         0         0         0         0
         0         0         0         0         0         0         0         0
         0         0         0         0         0         0         0         0
         0         0         0         0         0         0         0         0
         0         0         0         0         0         0         0         0
         0         0         0         0         0         0         0         0
         0         0         0         0         0         0         0         0
         0         0         0         0         0         0         0         0
         0         0         0         0         0         0         0         0
         0         0         0         0         0         0         0         0
         0         0         0         0         0         0         0         0
         0         0         0         0         0         0         0         0
         0         0         0         0         0         0         0         0
         0         0         0         0         0         0         0         0
         0         0         0         0         0         0         0         0
         0         0         0         0         0         0         0         0
         0         0         0         0         0         0         0         0
         0         0         0         0         0         0         0         0
         0         0         0         0         0         0         0         0
         0         0         0         0         0         0         0         0
         0         0         0         0         0         0         0         0
         0         0         0         0         0         0         0         0
         0         0         0         0         0         0         0         0
         0         0         0         0         0         0         0         0
         0         0         0         0         0         0         0         0
         0         0         0         0         0         0         0         0
         0         0         0         0         0         0         0         0
         0         0         0         0         0         0         0         0
         0         0         0         0         0         0         0         0
         0         0         0         0         0         0         0         0
         0         0         0         0         0         0         0         0
         0         0         0         0         0         0         0         0
         0         0         0         0         0         0         0         0
         0         0         0         0         0         0         0         0
         0         0         0         0         0         0         0         0
         0         0         0         0         0         0         0         0
         0         0         0         0         0         0         0         0
         0         0         0         0         0         0         0         0
         0         0         0         0         0         0         0         0
         0         0         0         0         0         0         0         0
         0         0         0         0         0         0         0         0
         0         0         0         0         0         0         0         0
         0         0         0         0         0         0         0         0
         0         0         0         0         0         0         0         0
         0         0         0         0         0         0         0         0
         0         0         0         0         0         0         0         0
         0         0         0         0         0         0         0         0
         0         0         0         0         0         0         0         0
         0         0         0         0         0         0         0         0
         0         0         0         0         0         0         0         0
         0         0         0         0         0         0         0         0
         0         0         0         0         0         0         0         0
         0         0         0         0         0         0         0         0
         0         0         0         0         0         0         0         0
         0         0         0         0         0         0         0         0
         0         0         0         0         0         0         0         0
         0         0         0         0         0         0         0         0
         0         0         0         0         0         0         0         0
         0         0         0         0         0         0         0         0
         0         0         0         0         0         0         0         0
         0         0         0         0         0         0         0         0
         0         0         0         0         0         0         0         0
         0         0         0         0         0         0         0         0
         0         0         0         0         0         0         0         0
         0         0         0         0         0         0         0         0
         0         0         0         0         0         0         0         0
         0         0         0         0         0         0         0         0
         0         0         0         0         0         0         0         0
         0         0         0         0         0         0         0         0
         0         0         0         0         0         0         0         0
         0         0         0         0         0         0         0         0
         0         0         0         0         0         0         0         0
         0         0         0         0         0         0         0         0
         0         0         0         0         0         0         0         0
         0         0         0         0         0         0         0         0
         0         0         0         0         0         0         0         0
         0         0         0         0         0         0         0         0
         0         0         0         0         0         0         0         0
         0         0         0         0         0         0         0         0
         0         0         0         0         0         0         0         0
         0         0         0         0         0         0         0         0
         0         0         0         0         0         0         0         0
         0         0         0         0         0         0         0         0
         0         0         0         0         0         0         0         0
         0         0         0         0         0         0         0         0
         0         0         0         0         0         0         0         0
         0         0         0         0         0         0         0         0
         0         0         0         0         0         0         0         0
         0         0         0         0         0         0         0         0
         0         0         0         0         0         0         0         0
         0         0         0         0         0         0         0         0
         0         0         0         0         0         0         0         0
         0         0         0         0         0         0         0         0
         0         0         0         0         0         0         0         0
         0         0         0         0         0         0         0         0
         0         0         0         0         0         0         0         0
         0         0         0         0         0         0         0         0
         0         0         0         0         0         0         0         0
         0         0         0         0         0         0         0         0
         0         0         0         0         0         0         0         0
         0         0         0         0         0         0         0         0
         0         0         0         0         0         0         0         0
         0         0         0         0         0         0         0         0
         0         0         0         0         0         0         0         0
         0         0         0         0         0         0         0         0
         0         0         0         0         0         0         0         0
         0         0         0         0         0         0         0         0
         0         0         0         0         0         0         0         0
         0         0         0         0         0         0         0         0
         0         0         0         0         0         0         0         0
         0         0         0         0         0         0         0         0
         0         0         0         0         0         0         0         0
         0         0         0         0         0         0         0         0
         0         0         0         0         0         0         0         0
         0         0         0         0         0         0         0         0
         0         0         0         0         0         0         0         0
         0         0         0         0         0         0         0         0
         0         0         0         0         0         0         0         0
         0         0         0         0         0         0         0         0
         0         0         0         0         0         0         0         0
         0         0         0         0         0         0         0         0
         0         0         0         0         0         0         0         0
         0         0         0         0         0         0         0         0
         0         0         0         0         0         0         0         0
         0         0         0         0         0         0         0         0
         0         0         0         0         0         0         0         0
         0         0         0         0         0         0         0         0
         0         0         0         0         0         0         0         0
         0         0         0         0         0         0         0         0
         0         0         0         0         0         0         0         0
         0         0         0         0         0         0         0         0
         0         0         0         0         0         0         0         0
         0         0         0         0         0         0         0         0
         0         0         0         0         0         0         0         0
         0         0         0         0         0         0         0         0
         0         0         0         0         0         0         0         0
         0         0         0         0         0         0         0         0
         0         0         0         0         0         0         0         0
         0         0         0         0         0         0         0         0
         0         0         0         0         0         0         0         0
         0         0         0         0         0         0         0         0
         0         0         0         0         0         0         0         0
         0         0         0         0         0         0         0         0
         0         0         0         0         0         0         0         0
         0         0         0         0         0         0         0         0
         0         0         0         0         0         0         0         0
         0         0         0         0         0         0         0         0
         0         0         0         0         0         0         0         0
         0         0         0         0         0         0         0         0
         0         0         0         0         0         0         0         0
         0         0         0         0         0         0         0         0
         0         0         0         0         0         0         0         0
         0         0         0         0         0         0         0         0
         0         0         0         0         0         0         0         0
         0         0         0         0         0         0         0         0
         0         0         0         0         0         0         0         0
         0         0         0         0         0         0         0         0
         0         0         0         0         0         0         0         0
         0         0         0         0         0         0         0         0
         0         0         0         0         0         0         0         0
         0         0         0         0         0         0         0         0
         0         0         0         0         0         0         0         0
         0         0         0         0         0         0         0         0
         0         0         0         0         0         0         0         0
         0         0         0         0         0         0         0         0
         0         0         0         0         0         0         0         0
         0         0         0         0         0         0         0         0
         0         0         0         0         0         0         0         0
         0         0         0         0         0         0         0         0
         0         0         0         0         0         0         0         0
         0         0         0         0         0         0         0         0
         0         0         0         0         0         0         0         0
         0         0         0         0         0         0         0         0
         0         0         0         0         0         0         0         0
         0         0         0         0         0         0         0         0
         0         0         0         0         0         0         0         0
         0         0         0         0         0         0         0         0
         0         0         0         0         0         0         0         0
         0         0         0         0         0         0         0         0
         0         0         0         0         0         0         0         0
         0         0         0         0         0         0         0         0
         0         0         0         0         0         0         0         0
         0         0         0         0         0         0         0         0
         0         0         0         0         0         0         0         0
         0         0         0         0         0         0         0         0
         0         0         0         0         0         0         0         0
         0         0         0         0         0         0         0         0
         0         0         0         0         0         0         0         0
         0         0         0         0         0         0         0         0
         0         0         0         0         0         0         0         0
         0         0         0         0         0         0         0         0
         0         0         0         0         0         0         0         0
         0         0         0         0         0         0         0         0
         0         0         0         0         0         0         0         0
         0         0         0         0         0         0         0         0
         0         0         0         0         0         0         0         0
         0         0         0         0         0         0         0         0
         0         0         0         0         0         0         0         0
         0         0         0         0         0         0         0         0
         0         0         0         0         0         0         0         0
         0         0         0         0         0         0         0         0
         0         0         0         0         0         0         0         0
         0         0         0         0         0         0         0         0
         0         0         0         0         0         0         0         0
         0         0         0         0         0         0         0         0
         0         0         0         0         0         0         0         0
         0         0         0         0         0         0         0         0
         0         0         0         0         0         0         0         0
         0         0         0         0         0         0         0         0
         0         0         0         0         0         0         0         0
         0         0         0         0         0         0         0         0
         0         0         0         0         0         0         0         0
         0         0         0         0         0         0         0         0
         0         0         0         0         0         0         0         0
         0         0         0         0         0         0         0         0
         0         0         0         0         0         0         0         0
         0         0         0         0         0         0         0         0
         0         0         0         0         0         0         0         0
         0         0         0         0         0         0         0         0
         0         0         0         0         0         0         0         0
         0         0         0         0         0         0         0         0
         0         0         0         0         0         0         0         0
         0         0         0         0         0         0         0         0
         0         0         0         0         0         0         0         0
         0         0         0         0         0         0         0         0
         0         0         0         0         0         0         0         0
         0         0         0         0         0         0         0         0
         0         0         0         0         0         0         0         0
         0         0         0         0         0         0         0         0
         0         0         0         0         0         0         0         0
         0         0         0         0         0         0         0         0
         0         0         0         0         0         0         0         0
         0         0         0         0         0         0         0         0
         0         0         0         0         0         0         0         0
         0         0         0         0         0         0         0         0
         0         0         0         0         0         0         0         0
         0         0         0         0         0         0         0         0
         0         0         0         0         0         0         0         0
         0         0         0         0         0         0         0         0
         0         0         0         0         0         0         0         0
         0         0         0         0         0         0         0         0
         0         0         0         0         0         0         0         0
         0         0         0         0         0         0         0         0
         0         0         0         0         0         0         0         0
         0         0         0         0         0         0         0         0
         0         0         0         0         0         0         0         0
         0         0         0         0         0         0         0         0
         0         0         0         0         0         0         0         0
         0         0         0         0         0         0         0         0
         0         0         0         0         0         0         0         0
         0         0         0         0         0         0         0         0
         0         0         0         0         0         0         0         0
         0         0         0         0         0         0         0         0
         0         0         0         0         0         0         0         0
         0         0         0         0         0         0         0         0
         0         0         0         0         0         0         0         0
         0         0         0         0         0         0         0         0
         0         0         0         0         0         0         0         0
         0         0         0         0         0         0         0         0
         0         0         0         0         0         0         0         0
         0         0         0         0         0         0         0         0
         0         0         0         0         0         0         0         0
         0         0         0         0         0         0         0         0
         0         0         0         0         0         0         0         0
         0         0         0         0         0         0         0         0
         0         0         0         0         0         0         0         0
         0         0         0         0         0         0         0         0
         0         0         0         0         0         0         0         0
         0         0         0         0         0         0         0         0
         0         0         0         0         0         0         0         0
         0         0         0         0         0         0         0         0
         0         0         0         0         0         0         0         0
         0         0         0         0         0         0         0         0
         0         0         0         0         0         0         0         0
         0         0         0         0         0         0         0         0
         0         0         0         0         0         0         0         0
         0         0         0         0         0         0         0         0
         0         0         0         0         0         0         0         0
         0         0         0         0         0         0         0         0
         0         0         0         0         0         0         0         0
         0         0         0         0         0         0         0         0
         0         0         0         0         0         0         0         0
         0         0         0         0         0         0         0         0
         0         0         0         0         0         0         0         0
         0         0         0         0         0         0         0         0
         0         0         0         0         0         0         0         0
         0         0         0         0         0         0         0         0
         0         0         0         0         0         0         0         0
         0         0         0         0         0         0         0         0
         0         0         0         0         0         0         0         0
         0         0         0         0         0         0         0         0
         0         0         0         0         0         0         0         0
         0         0         0         0         0         0         0         0
         0         0         0         0         0         0         0         0
         0         0         0         0         0         0         0         0
         0         0         0         0         0         0         0         0
         0         0         0         0         0         0         0         0
         0         0         0         0         0         0         0         0
         0         0         0         0         0         0         0         0
         0         0         0         0         0         0         0         0
         0         0         0         0         0         0         0         0
         0         0         0         0         0         0         0         0
         0         0         0         0         0         0         0         0
         0         0         0         0         0         0         0         0
         0         0         0         0         0         0         0         0
         0         0         0         0         0         0         0         0
         0         0         0         0         0         0         0         0
         0         0         0         0         0         0         0         0
         0         0         0         0         0         0         0         0
         0         0         0         0         0         0         0         0
         0         0         0         0         0         0         0         0
         0         0         0         0         0         0         0         0
         0         0         0         0         0         0         0         0
         0         0         0         0         0         0         0         0
         0         0         0         0         0         0         0         0
         0         0         0         0         0         0         0         0
         0         0         0         0         0         0         0         0
         0         0         0         0         0         0         0         0
         0         0         0         0         0         0         0         0
         0         0         0         0         0         0         0         0
         0         0         0         0         0         0         0         0
         0         0         0         0         0         0         0         0
         0         0         0         0         0         0         0         0
         0         0         0         0         0         0         0         0
         0         0         0         0         0         0         0         0
         0         0         0         0         0         0         0         0
         0         0         0         0         0         0         0         0
         0         0         0         0         0         0         0         0
         0         0         0         0         0         0         0         0
         0         0         0         0         0         0         0         0
         0         0         0         0         0         0         0         0
         0         0         0         0         0         0         0         0
         0         0         0         0         0         0         0         0
         0         0         0         0         0         0         0         0
         0         0         0         0         0         0         0         0
         0         0         0         0         0         0         0         0
         0         0         0         0         0         0         0         0
         0         0         0         0         0         0         0         0
         0         0         0         0         0         0         0         0
         0         0         0         0         0         0         0         0
         0         0         0         0         0         0         0         0
         0         0         0         0         0         0         0         0
         0         0         0         0         0         0         0         0
         0         0         0         0         0         0         0         0
         0         0         0         0         0         0         0         0
         0         0         0         0         0         0         0         0
         0         0         0         0         0         0         0         0
         0         0         0         0         0         0         0         0
         0         0         0         0         0         0         0         0
         0         0         0         0         0         0         0         0
         0         0         0         0         0         0         0         0
         0         0         0         0         0         0         0         0
         0         0         0         0         0         0         0         0
         0         0         0         0         0         0         0         0
         0         0         0         0         0         0         0         0
         0         0         0         0         0         0         0         0
         0         0         0         0         0         0         0         0
         0         0         0         0         0         0         0         0
         0         0         0         0         0         0         0         0
         0         0         0         0         0         0         0         0
         0         0         0         0         0         0         0         0
         0         0         0         0         0         0         0         0
         0         0         0         0         0         0         0         0
         0         0         0         0         0         0         0         0
         0         0         0         0         0         0         0         0
         0         0         0         0         0         0         0         0
         0         0         0         0         0         0         0         0
         0         0         0         0         0         0         0         0
         0         0         0         0         0         0         0         0
         0         0         0         0         0         0         0         0
         0         0         0         0         0         0         0         0
         0         0         0         0         0         0         0         0
         0         0         0         0         0         0         0         0
         0         0         0         0         0         0         0         0
         0         0         0         0         0         0         0         0
         0         0         0         0         0         0         0         0
         0         0         0         0         0         0         0         0
         0         0         0         0         0         0         0         0
         0         0         0         0         0         0         0         0
         0         0         0         0         0
         0         0         0         0         0         0         0         0
         0         0         0         0         0         0         0         0
         0         0         0         0         0         0         0         0
         0         0         0         0         0         0         0         0
         0         0         0         0         0         0         0         0
         0         0         0         0         0         0         0         0
         0         0         0         0         0         0         0         0
         0         0         0         0         0         0         0         0
         0         0         0         0         0         0         0         0
         0         0         0         0         0         0         0         0
         0         0         0         0         0         0         0         0
         0         0         0         0         0         0         0         0
         0         0         0         0         0         0         0         0
         0         0         0         0         0         0         0         0
         0         0         0         0         0         0         0         0
         0         0         0         0         0         0         0         0
         0         0         0         0         0         0         0         0
         0         0         0         0         0         0         0         0
         0         0         0         0         0         0         0         0
         0         0         0         0         0         0         0         0
         0         0         0         0         0         0         0         0
         0         0         0         0         0         0         0         0
         0         0         0         0         0         0         0         0
         0         0         0         0         0         0         0         0
         0         0         0         0         0         0         0         0
         0         0         0         0         0         0         0         0
         0         0         0         0         0         0         0         0
         0         0         0         0         0         0         0         0
         0         0         0         0         0         0         0         0
         0         0         0         0         0         0         0         0
         0         0         0         0         0         0         0         0
         0         0         0         0         0         0         0         0
         0         0         0         0         0         0         0         0
         0         0         0         0         0         0         0         0
         0         0         0         0         0         0         0         0
         0         0         0         0         0         0         0         0
         0         0         0         0         0         0         0         0
         0         0         0         0         0         0         0         0
         0         0         0         0         0         0         0         0
         0         0         0         0         0         0         0         0
         0         0         0         0         0         0         0         0
         0         0         0         0         0         0         0         0
         0         0         0         0         0         0         0         0
         0         0         0         0         0         0         0         0
         0         0         0         0         0         0         0         0
         0         0         0         0         0         0         0         0
         0         0         0         0         0         0         0         0
         0         0         0         0         0         0         0         0
         0         0         0         0         0         0         0         0
         0         0         0         0         0         0         0         0
         0         0         0         0         0         0         0         0
         0         0         0         0         0         0         0         0
         0         0         0         0         0         0         0         0
         0         0         0         0         0         0         0         0
         0         0         0         0         0         0         0         0
         0         0         0         0         0         0         0         0
         0         0         0         0         0         0         0         0
         0         0         0         0         0         0         0         0
         0         0         0         0         0         0         0         0
         0         0         0         0         0         0         0         0
         0         0         0         0         0         0         0         0
         0         0         0         0         0         0         0         0
         0         0         0         0         0         0         0         0
         0         0         0         0         0         0         0         0
         0         0         0         0         0         0         0         0
         0         0         0         0         0         0         0         0
         0         0         0         0         0         0         0         0
         0         0         0         0         0         0         0         0
         0         0         0         0         0         0         0         0
         0         0         0         0         0         0         0         0
         0         0         0         0         0         0         0         0
         0         0         0         0         0         0         0         0
         0         0         0         0         0         0         0         0
         0         0         0         0         0         0         0         0
         0         0         0         0         0         0         0         0
         0         0         0         0         0         0         0         0
         0         0         0         0         0         0         0         0
         0         0         0         0         0         0         0         0
         0         0         0         0         0         0         0         0
         0         0         0         0         0         0         0         0
         0         0         0         0         0         0         0         0
         0         0         0         0         0         0         0         0
         0         0         0         0         0         0         0         0
         0         0         0         0         0         0         0         0
         0         0         0         0         0         0         0         0
         0         0         0         0         0         0         0         0
         0         0         0         0         0         0         0         0
         0         0         0         0         0         0         0         0
         0         0         0         0         0         0         0         0
         0         0         0         0         0         0         0         0
         0         0         0         0         0         0         0         0
         0         0         0         0         0         0         0         0
         0         0         0         0         0         0         0         0
         0         0         0         0         0         0         0         0
         0         0         0         0         0         0         0         0
         0         0         0         0         0         0         0         0
         0         0         0         0         0         0         0         0
         0         0         0         0         0         0         0         0
         0         0         0         0         0         0         0         0
         0         0         0         0         0         0         0         0
         0         0         0         0         0         0         0         0
         0         0         0         0         0         0         0         0
         0         0         0         0         0         0         0         0
         0         0         0         0         0         0         0         0
         0         0         0         0         0         0         0         0
         0         0         0         0         0         0         0         0
         0         0         0         0         0         0         0         0
         0         0         0         0         0         0         0         0
         0         0         0         0         0         0         0         0
         0         0         0         0         0         0         0         0
         0         0         0         0         0         0         0         0
         0         0         0         0         0         0         0         0
         0         0         0         0         0         0         0         0
         0         0         0         0         0         0         0         0
         0         0         0         0         0         0         0         0
         0         0         0         0         0         0         0         0
         0         0         0         0         0         0         0         0
         0         0         0         0         0         0         0         0
         0         0         0         0         0         0         0         0
         0         0         0         0         0         0         0         0
         0         0         0         0         0         0         0         0
         0         0         0         0         0         0         0         0
         0         0         0         0         0         0         0         0
         0         0         0         0         0         0         0         0
         0         0         0         0         0         0         0         0
         0         0         0         0         0         0         0         0
         0         0         0         0         0         0         0         0
         0         0         0         0         0         0         0         0
         0         0         0         0         0         0         0         0
         0         0         0         0         0         0         0         0
         0         0         0         0         0         0         0         0
         0         0         0         0         0         0         0         0
         0         0         0         0         0         0         0         0
         0         0         0         0         0         0         0         0
         0         0         0         0         0         0         0         0
         0         0         0         0         0         0         0         0
         0         0         0         0         0         0         0         0
         0         0         0         0         0         0         0         0
         0         0         0         0         0         0         0         0
         0         0         0         0         0         0         0         0
         0         0         0         0         0         0         0         0
         0         0         0         0         0         0         0         0
         0         0         0         0         0         0         0         0
         0         0         0         0         0         0         0         0
         0         0         0         0         0         0         0         0
         0         0         0         0         0         0         0         0
         0         0         0         0         0         0         0         0
         0         0         0         0         0         0         0         0
         0         0         0         0         0         0         0         0
         0         0         0         0         0         0         0         0
         0         0         0         0         0         0         0         0
         0         0         0         0         0         0         0         0
         0         0         0         0         0         0         0         0
         0         0         0         0         0         0         0         0
         0         0         0         0         0         0         0         0
         0         0         0         0         0         0         0         0
         0         0         0         0         0         0         0         0
         0         0         0         0         0         0         0         0
         0         0         0         0         0         0         0         0
         0         0         0         0         0         0         0         0
         0         0         0         0         0         0         0         0
         0         0         0         0         0         0         0         0
         0         0         0         0         0         0         0         0
         0         0         0         0         0         0         0         0
         0         0         0         0         0         0         0         0
         0         0         0         0         0         0         0         0
         0         0         0         0         0         0         0         0
         0         0         0         0         0         0         0         0
         0         0         0         0         0         0         0         0
         0         0         0         0         0         0         0         0
         0         0         0         0         0         0         0         0
         0         0         0         0         0         0         0         0
         0         0         0         0         0         0         0         0
         0         0         0         0         0         0         0         0
         0         0         0         0         0         0         0         0
         0         0         0         0         0         0         0         0
         0         0         0         0         0         0         0         0
         0         0         0         0         0         0         0         0
         0         0         0         0         0         0         0         0
         0         0         0         0         0         0         0         0
         0         0         0         0         0         0         0         0
         0         0         0         0         0         0         0         0
         0         0         0         0         0         0         0         0
         0         0         0         0         0         0         0         0
         0         0         0         0         0         0         0         0
         0         0         0         0         0         0         0         0
         0         0         0         0         0         0         0         0
         0         0         0         0         0         0         0         0
         0         0         0         0         0         0         0         0
         0         0         0         0         0         0         0         0
         0         0         0         0         0         0         0         0
         0         0         0         0         0         0         0         0
         0         0         0         0         0         0         0         0
         0         0         0         0         0         0         0         0
         0         0         0         0         0         0         0         0
         0         0         0         0         0         0         0         0
         0         0         0         0         0         0         0         0
         0         0         0         0         0         0         0         0
         0         0         0         0         0         0         0         0
         0         0         0         0         0         0         0         0
         0         0         0         0         0         0         0         0
         0         0         0         0         0         0         0         0
         0         0         0         0         0         0         0         0
         0         0         0         0         0         0         0         0
         0         0         0         0         0         0         0         0
         0         0         0         0         0         0         0         0
         0         0         0         0         0         0         0         0
         0         0         0         0         0         0         0         0
         0         0         0         0         0         0         0         0
         0         0         0         0         0         0         0         0
         0         0         0         0         0         0         0         0
         0         0         0         0         0         0         0         0
         0         0         0         0         0         0         0         0
         0         0         0         0         0         0         0         0
         0         0         0         0         0         0         0         0
         0         0         0         0         0         0         0         0
         0         0         0         0         0         0         0         0
         0         0         0         0         0         0         0         0
         0         0         0         0         0         0         0         0
         0         0         0         0         0         0         0         0
         0         0         0         0         0         0         0         0
         0         0         0         0         0         0         0         0
         0         0         0         0         0         0         0         0
         0         0         0         0         0         0         0         0
         0         0         0         0         0         0         0         0
         0         0         0         0         0         0         0         0
         0         0         0         0         0         0         0         0
         0         0         0         0         0         0         0         0
         0         0         0         0         0         0         0         0
         0         0         0         0         0         0         0         0
         0         0         0         0         0         0         0         0
         0         0         0         0         0         0         0         0
         0         0         0         0         0         0         0         0
         0         0         0         0         0         0         0         0
         0         0         0         0         0         0         0         0
         0         0         0         0         0         0         0         0
         0         0         0         0         0         0         0         0
         0         0         0         0         0         0         0         0
         0         0         0         0         0         0         0         0
         0         0         0         0         0         0         0         0
         0         0         0         0         0         0         0         0
         0         0         0         0         0         0         0         0
         0         0         0         0         0         0         0         0
         0         0         0         0         0         0         0         0
         0         0         0         0         0         0         0         0
         0         0         0         0         0         0         0         0
         0         0         0         0         0         0         0         0
         0         0         0         0         0         0         0         0
         0         0         0         0         0         0         0         0
         0         0         0         0         0         0         0         0
         0         0         0         0         0         0         0         0
         0         0         0         0         0         0         0         0
         0         0         0         0         0         0         0         0
         0         0         0         0         0         0         0         0
         0         0         0         0         0         0         0         0
         0         0         0         0         0         0         0         0
         0         0         0         0         0         0         0         0
         0         0         0         0         0         0         0         0
         0         0         0         0         0         0         0         0
         0         0         0         0         0         0         0         0
         0         0         0         0         0         0         0         0
         0         0         0         0         0         0         0         0
         0         0         0         0         0         0         0         0
         0         0         0         0         0         0         0         0
         0         0         0         0         0         0         0         0
         0         0         0         0         0         0         0         0
         0         0         0         0         0         0         0         0
         0         0         0         0         0         0         0         0
         0         0         0         0         0         0         0         0
         0         0         0         0         0         0         0         0
         0         0         0         0         0         0         0         0
         0         0         0         0         0         0         0         0
         0         0         0         0         0         0         0         0
         0         0         0         0         0         0         0         0
         0         0         0         0         0         0         0         0
         0         0         0         0         0         0         0         0
         0         0         0         0         0         0         0         0
         0         0         0         0         0         0         0         0
         0         0         0         0         0         0         0         0
         0         0         0         0         0         0         0         0
         0         0         0         0         0         0         0         0
         0         0         0         0         0         0         0         0
         0         0         0         0         0         0         0         0
         0         0         0         0         0         0         0         0
         0         0         0         0         0         0         0         0
         0         0         0         0         0         0         0         0
         0         0         0         0         0         0         0         0
         0         0         0         0         0         0         0         0
         0         0         0         0         0         0         0         0
         0         0         0         0         0         0         0         0
         0         0         0         0         0         0         0         0
         0         0         0         0         0         0         0         0
         0         0         0         0         0         0         0         0
         0         0         0         0         0         0         0         0
         0         0         0         0         0         0         0         0
         0         0         0         0         0         0         0         0
         0         0         0         0         0         0         0         0
         0         0         0         0         0         0         0         0
         0         0         0         0         0         0         0         0
         0         0         0         0         0         0         0         0
         0         0         0         0         0         0         0         0
         0         0         0         0         0         0         0         0
         0         0         0         0         0         0         0         0
         0         0         0         0         0         0         0         0
         0         0         0         0         0         0         0         0
         0         0         0         0         0         0         0         0
         0         0         0         0         0         0         0         0
         0         0         0         0         0         0         0         0
         0         0         0         0         0         0         0         0
         0         0         0         0         0         0         0         0
         0         0         0         0         0         0         0         0
         0         0         0         0         0         0         0         0
         0         0         0         0         0         0         0         0
         0         0         0         0         0         0         0         0
         0         0         0         0         0         0         0         0
         0         0         0         0         0         0         0         0
         0         0         0         0         0         0         0         0
         0         0         0         0         0         0         0         0
         0         0         0         0         0         0         0         0
         0         0         0         0         0         0         0         0
         0         0         0         0         0         0         0         0
         0         0         0         0         0         0         0         0
         0         0         0         0         0         0         0         0
         0         0         0         0         0         0         0         0
         0         0         0         0         0         0         0         0
         0         0         0         0         0         0         0         0
         0         0         0         0         0         0         0         0
         0         0         0         0         0         0         0         0
         0         0         0         0         0         0         0         0
         0         0         0         0         0         0         0         0
         0         0         0         0         0         0         0         0
         0         0         0         0         0         0         0         0
         0         0         0         0         0         0         0         0
         0         0         0         0         0         0         0         0
         0         0         0         0         0         0         0         0
         0         0         0         0         0         0         0         0
         0         0         0         0         0         0         0         0
         0         0         0         0         0         0         0         0
         0         0         0         0         0         0         0         0
         0         0         0         0         0         0         0         0
         0         0         0         0         0         0         0         0
         0         0         0         0         0         0         0         0
         0         0         0         0         0         0         0         0
         0         0         0         0         0         0         0         0
         0         0         0         0         0         0         0         0
         0         0         0         0         0         0         0         0
         0         0         0         0         0         0         0         0
         0         0         0         0         0         0         0         0
         0         0         0         0         0         0         0         0
         0         0         0         0         0         0         0         0
         0         0         0         0         0         0         0         0
         0         0         0         0         0         0         0         0
         0         0         0         0         0         0         0         0
         0         0         0         0         0         0         0         0
         0         0         0         0         0         0         0         0
         0         0         0         0         0         0         0         0
         0         0         0         0         0         0         0         0
         0         0         0         0         0         0         0         0
         0         0         0         0         0         0         0         0
         0         0         0         0         0         0         0         0
         0         0         0         0         0         0         0         0
         0         0         0         0         0         0         0         0
         0         0         0         0         0         0         0         0
         0         0         0         0         0         0         0         0
         0         0         0         0         0         0         0         0
         0         0         0         0         0         0         0         0
         0         0         0         0         0         0         0         0
         0         0         0         0         0         0         0         0
         0         0         0         0         0         0         0         0
         0         0         0         0         0         0         0         0
         0         0         0         0         0         0         0         0
         0         0         0         0         0         0         0         0
         0         0         0         0         0         0         0         0
         0         0         0         0         0         0         0         0
         0         0         0         0         0         0         0         0
         0         0         0         0         0         0         0         0
         0         0         0         0         0         0         0         0
         0         0         0         0         0         0         0         0
         0         0         0         0         0         0         0         0
         0         0         0         0         0         0         0         0
         0         0         0         0         0         0         0         0
         0         0         0         0         0         0         0         0
         0         0         0         0         0         0         0         0
         0         0         0         0         0         0         0         0
         0         0         0         0         0         0         0         0
         0         0         0         0         0         0         0         0
         0         0         0         0         0         0         0         0
         0         0         0         0         0         0         0         0
         0         0         0         0         0         0         0         0
         0         0         0         0         0         0         0         0
         0         0         0         0         0         0         0         0
         0         0         0         0         0         0         0         0
         0         0         0         0         0         0         0         0
         0         0         0         0         0         0         0         0
         0         0         0         0         0         0         0         0
         0         0         0         0         0         0         0         0
         0         0         0         0         0         0         0         0
         0         0         0         0         0         0         0         0
         0         0         0         0         0         0         0         0
         0         0         0         0         0         0         0         0
         0         0         0         0         0         0         0         0
         0         0         0         0         0         0         0         0
         0         0         0         0         0         0         0         0
         0         0         0         0         0         0         0         0
         0         0         0         0         0         0         0         0
         0         0         0         0         0         0         0         0
         0         0         0         0         0         0         0         0
         0         0         0         0         0         0         0         0
         0         0         0         0         0         0         0         0
         0         0         0         0         0         0         0         0
         0         0         0         0         0         0         0         0
         0         0         0         0         0         0         0         0
         0         0         0         0         0         0         0         0
         0         0         0         0         0         0         0         0
         0         0         0         0         0         0         0         0
         0         0         0         0         0         0         0         0
         0         0         0         0         0         0         0         0
         0         0         0         0         0         0         0         0
         0         0         0         0         0         0         0         0
         0         0         0         0         0         0         0         0
         0         0         0         0         0         0         0         0
         0         0         0         0         0         0         0         0
         0         0         0         0         0         0         0         0
         0         0         0         0         0         0         0         0
         0         0         0         0         0         0         0         0
         0         0         0         0         0         0         0         0
         0         0         0         0         0         0         0         0
         0         0         0         0         0         0         0         0
         0         0         0         0         0         0         0         0
         0         0         0         0         0         0         0         0
         0         0         0         0         0         0         0         0
         0         0         0         0         0         0         0         0
         0         0         0         0         0         0         0         0
         0         0         0         0         0         0         0         0
         0         0         0         0         0         0         0         0
         0         0         0         0         0         0         0         0
         0         0         0         0         0         0         0         0
         0         0         0         0         0         0         0         0
         0         0         0         0         0         0         0         0
         0         0         0         0         0         0         0         0
         0         0         0         0         0         0         0         0
         0         0         0         0         0         0         0         0
         0         0         0         0         0         0         0         0
         0         0         0         0         0         0         0         0
         0         0         0         0         0         0         0         0
         0         0         0         0         0         0         0         0
         0         0         0         0         0         0         0         0
         0         0         0         0         0         0         0         0
         0         0         0         0         0         0         0         0
         0         0         0         0         0         0         0         0
         0         0         0         0         0         0         0         0
         0         0         0         0         0         0         0         0
         0         0         0         0         0         0         0         0
         0         0         0         0         0         0         0         0
         0         0         0         0         0         0         0         0
         0         0         0         0         0         0         0         0
         0         0         0         0         0         0         0         0
         0         0         0         0         0         0         0         0
         0         0         0         0         0         0         0         0
         0         0         0         0         0         0         0         0
         0         0         0         0         0         0         0         0
         0         0         0         0         0         0         0         0
         0         0         0         0         0         0         0         0
         0         0         0         0         0         0         0         0
         0         0         0         0         0         0         0         0
         0         0         0         0         0         0         0         0
         0         0         0         0         0         0         0         0
         0         0         0         0         0         0         0         0
         0         0         0         0         0         0         0         0
         0         0         0         0         0         0         0         0
         0         0         0         0         0         0         0         0
         0         0         0         0         0         0         0         0
         0         0         0         0         0         0         0         0
         0         0         0         0         0         0         0         0
         0         0         0         0         0         0         0         0
         0         0         0         0         0         0         0         0
         0         0         0         0         0         0         0         0
         0         0         0         0         0         0         0         0
         0         0         0         0         0         0         0         0
         0         0         0         0         0         0         0         0
         0         0         0         0         0         0         0         0
         0         0         0         0         0         0         0         0
         0         0         0         0         0         0         0         0
         0         0         0         0         0         0         0         0
         0         0         0         0         0         0         0         0
         0         0         0         0         0         0         0         0
         0         0         0         0         0         0         0         0
         0         0         0         0         0         0         0         0
         0         0         0         0         0         0         0         0
         0         0         0         0         0         0         0         0
         0         0         0         0         0         0         0         0
         0         0         0         0         0         0         0         0
         0         0         0         0         0         0         0         0
         0         0         0         0         0         0         0         0
         0         0         0         0         0         0         0         0
         0         0         0         0         0         0         0         0
         0         0         0         0         0         0         0         0
         0         0         0         0         0         0         0         0
         0         0         0         0         0         0         0         0
         0         0         0         0         0         0         0         0
         0         0         0         0         0         0         0         0
         0         0         0         0         0         0         0         0
         0         0         0         0         0         0         0         0
         0         0         0         0         0         0         0         0
         0         0         0         0         0         0         0         0
         0         0         0         0         0         0         0         0
         0         0         0         0         0         0         0         0
         0         0         0         0         0         0         0         0
         0         0         0         0         0         0         0         0
         0         0         0         0         0         0         0         0
         0         0         0         0         0         0         0         0
         0         0         0         0         0         0         0         0
         0         0         0         0         0         0         0         0
         0         0         0         0         0         0         0         0
         0         0         0         0         0         0         0         0
         0         0         0         0         0         0         0         0
         0         0         0         0         0         0         0         0
         0         0         0         0         0         0         0         0
         0         0         0         0         0         0         0         0
         0         0         0         0         0         0         0         0
         0         0         0         0         0         0         0         0
         0         0         0         0         0         0         0         0
         0         0         0         0         0         0         0         0
         0         0         0         0         0         0         0         0
         0         0         0         0         0         0         0         0
         0         0         0         0         0         0         0         0
         0         0         0         0         0         0         0         0
         0         0         0         0         0         0         0         0
         0         0         0         0         0         0         0         0
         0         0         0         0         0         0         0         0
         0         0         0         0         0         0         0         0
         0         0         0         0         0         0         0         0
         0         0         0         0         0         0         0         0
         0         0         0         0         0         0         0         0
         0         0         0         0         0         0         0         0
         0         0         0         0         0         0         0         0
         0         0         0         0         0         0         0         0
         0         0         0         0         0         0         0         0
         0         0         0         0         0         0         0         0
         0         0         0         0         0         0         0         0
         0         0         0         0         0         0         0         0
         0         0         0         0         0         0         0         0
         0         0         0         0         0         0         0         0
         0         0         0         0         0         0         0         0
         0         0         0         0         0         0         0         0
         0         0         0         0         0         0         0         0
         0         0         0         0         0         0         0         0
         0         0         0         0         0         0         0         0
         0         0         0         0         0         0         0         0
         0         0         0         0         0         0         0         0
         0         0         0         0         0         0         0         0
         0         0         0         0         0         0         0         0
         0         0         0         0         0         0         0         0
         0         0         0         0         0         0         0         0
         0         0         0         0         0         0         0         0
         0         0         0         0         0         0         0         0
         0         0         0         0         0         0         0         0
         0         0         0         0         0         0         0         0
         0         0         0         0         0         0         0         0
         0         0         0         0         0         0         0         0
         0         0         0         0         0         0         0         0
         0         0         0         0         0         0         0         0
         0         0         0         0         0         0         0         0
         0         0         0         0         0         0         0         0
         0         0         0         0         0         0         0         0
         0         0         0         0         0         0         0         0
         0         0         0         0         0         0         0         0
         0         0         0         0         0         0         0         0
         0         0         0         0         0         0         0         0
         0         0         0         0         0         0         0         0
         0         0         0         0         0         0         0         0
         0         0         0         0         0         0         0         0
         0         0         0         0         0         0         0         0
         0         0         0         0         0         0         0         0
         0         0         0         0         0         0         0         0
         0         0         0         0         0         0         0         0
         0         0         0         0         0         0         0         0
         0         0         0         0         0         0         0         0
         0         0         0         0         0         0         0         0
         0         0         0         0         0         0         0         0
         0         0         0         0         0         0         0         0
         0         0         0         0         0         0         0         0
         0         0         0         0         0         0         0         0
         0         0         0         0         0         0         0         0
         0         0         0         0         0         0         0         0
         0         0         0         0         0         0         0         0
         0         0         0         0         0         0         0         0
         0         0         0         0         0         0         0         0
         0         0         0         0         0         0         0         0
         0         0         0         0         0         0         0         0
         0         0         0         0         0         0         0         0
         0         0         0         0         0         0         0         0
         0         0         0         0         0         0         0         0
         0         0         0         0         0         0         0         0
         0         0         0         0         0         0         0         0
         0         0         0         0         0         0         0         0
         0         0         0         0         0         0         0         0
         0         0         0         0         0         0         0         0
         0         0         0         0         0         0         0         0
         0         0         0         0         0         0         0         0
         0         0         0         0         0         0         0         0
         0         0         0         0         0         0         0         0
         0         0         0         0         0         0         0         0
         0         0         0         0         0         0         0         0
         0         0         0         0         0         0         0         0
         0         0         0         0         0         0         0         0
         0         0         0         0         0         0         0         0
         0         0         0         0         0         0         0         0
         0         0         0         0         0         0         0         0
         0         0         0         0         0         0         0         0
         0         0         0         0         0         0         0         0
         0         0         0         0         0         0         0         0
         0         0         0         0         0         0         0         0
         0         0         0         0         0         0         0         0
         0         0         0         0         0         0         0         0
         0         0         0         0         0         0         0         0
         0         0         0         0         0         0         0         0
         0         0         0         0         0         0         0         0
         0         0         0         0         0         0         0         0
         0         0         0         0         0         0         0         0
         0         0         0         0         0         0         0         0
         0         0         0         0         0         0         0         0
         0         0         0         0         0         0         0         0
         0         0         0         0         0         0         0         0
         0         0         0         0         0         0         0         0
         0         0         0         0         0         0         0         0
         0         0         0         0         0         0         0         0
         0         0         0         0         0         0         0         0
         0         0         0         0         0         0         0         0
         0         0         0         0         0         0         0         0
         0         0         0         0         0         0         0         0
         0         0         0         0         0         0         0         0
         0         0         0         0         0         0         0         0
         0         0         0         0         0         0         0         0
         0         0         0         0         0         0         0         0
         0         0         0         0         0         0         0         0
         0         0         0         0         0         0         0         0
         0         0         0         0         0         0         0         0
         0         0         0         0         0         0         0         0
         0         0         0         0         0         0         0         0
         0         0         0         0         0         0         0         0
         0         0         0         0         0         0         0         0
         0         0         0         0         0         0         0         0
         0         0         0         0         0         0         0         0
         0         0         0         0         0         0         0         0
         0         0         0         0         0         0         0         0
         0         0         0         0         0         0         0         0
         0         0         0         0         0         0         0         0
         0         0         0         0         0         0         0         0
         0         0         0         0         0         0         0         0
         0         0         0         0         0         0         0         0
         0         0         0         0         0         0         0         0
         0         0         0         0         0         0         0         0
         0         0         0         0         0         0         0         0
         0         0         0         0         0         0         0         0
         0         0         0         0         0         0         0         0
         0         0         0         0         0         0         0         0
         0         0         0         0         0         0         0         0
         0         0         0         0         0         0         0         0
         0         0         0         0         0         0         0         0
         0         0         0         0         0         0         0         0
         0         0         0         0         0         0         0         0
         0         0         0         0         0         0         0         0
         0         0         0         0         0         0         0         0
         0         0         0         0         0         0         0         0
         0         0         0         0         0         0         0         0
         0         0         0         0         0         0         0         0
         0         0         0         0         0         0         0         0
         0         0         0         0         0         0         0         0
         0         0         0         0         0         0         0         0
         0         0         0         0         0         0         0         0
         0         0         0         0         0         0         0         0
         0         0         0         0         0         0         0         0
         0         0         0         0         0         0         0         0
         0         0         0         0         0         0         0         0
         0         0         0         0         0         0         0         0
         0         0         0         0         0         0         0         0
         0         0         0         0         0         0         0         0
         0         0         0         0         0         0         0         0
         0         0         0         0         0         0         0         0
         0         0         0         0         0         0         0         0
         0         0         0         0         0         0         0         0
         0         0         0         0         0         0         0         0
         0         0         0         0         0         0         0         0
         0         0         0         0         0         0         0         0
         0         0         0         0         0         0         0         0
         0         0         0         0         0         0         0         0
         0         0         0         0         0         0         0         0
         0         0         0         0         0         0         0         0
         0         0         0         0         0         0         0         0
         0         0         0         0         0         0         0         0
         0         0         0         0         0         0         0         0
         0         0         0         0         0         0         0         0
         0         0         0         0         0         0         0         0
         0         0         0         0         0         0         0         0
         0         0         0         0         0         0         0         0
         0         0         0         0         0         0         0         0
         0         0         0         0         0         0         0         0
         0         0         0         0         0         0         0         0
         0         0         0         0         0         0         0         0
         0         0         0         0         0         0         0         0
         0         0         0         0         0         0         0         0
         0         0         0         0         0         0         0         0
         0         0         0         0         0         0         0         0
         0         0         0         0         0         0         0         0
         0         0         0         0         0         0         0         0
         0         0         0         0         0         0         0         0
         0         0         0         0         0         0         0         0
         0         0         0         0         0         0         0         0
         0         0         0         0         0         0         0         0
         0         0         0         0         0         0         0         0
         0         0         0         0         0         0         0         0
         0         0         0         0         0         0         0         0
         0         0         0         0         0         0         0         0
         0         0         0         0         0         0         0         0
         0         0         0         0         0         0         0         0
         0         0         0         0         0         0         0         0
         0         0         0         0         0         0         0         0
         0         0         0         0         0         0         0         0
         0         0         0         0         0         0         0         0
         0         0         0         0         0         0         0         0
         0         0         0         0         0         0         0         0
         0         0         0         0         0         0         0         0
         0         0         0         0         0         0         0         0
         0         0         0         0         0         0         0         0
         0         0         0         0         0         0         0         0
         0         0         0         0         0         0         0         0
         0         0         0         0         0         0         0         0
         0         0         0         0         0         0         0         0
         0         0         0         0         0         0         0         0
         0         0         0         0         0         0         0         0
         0         0         0         0         0         0         0         0
         0         0         0         0         0         0         0         0
         0         0         0         0         0         0         0         0
         0         0         0         0         0         0         0         0
         0         0         0         0         0         0         0         0
         0         0         0         0         0         0         0         0
         0         0         0         0         0         0         0         0
         0         0         0         0         0         0         0         0
         0         0         0         0         0         0         0         0
         0         0         0         0         0         0         0         0
         0         0         0         0         0         0         0         0
         0         0         0         0         0         0         0         0
         0         0         0         0         0         0         0         0
         0         0         0         0         0         0         0         0
         0         0         0         0         0         0         0         0
         0         0         0         0         0         0         0         0
         0         0         0         0         0         0         0         0
         0         0         0         0         0         0         0         0
         0         0         0         0         0         0         0         0
         0         0         0         0         0         0         0         0
         0         0         0         0         0         0         0         0
         0         0         0         0         0         0         0         0
         0         0         0         0         0         0         0         0
         0         0         0         0         0         0         0         0
         0         0         0         0         0         0         0         0
         0         0         0         0         0         0         0         0
         0         0         0         0         0         0         0         0
         0         0         0         0         0         0         0         0
         0         0         0         0         0         0         0         0
         0         0         0         0         0         0         0         0
         0         0         0         0         0         0         0         0
         0         0         0         0         0         0         0         0
         0         0         0         0         0         0         0         0
         0         0         0         0         0         0         0         0
         0         0         0         0         0         0         0         0
         0         0         0         0         0         0         0         0
         0         0         0         0         0         0         0         0
         0         0         0         0         0         0         0         0
         0         0         0         0         0         0         0         0
         0         0         0         0         0         0         0         0
         0         0         0         0         0         0         0         0
         0         0         0         0         0         0         0         0
         0         0         0         0         0         0         0         0
         0         0         0         0         0         0         0         0
         0         0         0         0         0         0         0         0
         0         0         0         0         0         0         0         0
         0         0         0         0         0         0         0         0
         0         0         0         0         0         0         0         0
         0         0         0         0         0         0         0         0
         0         0         0         0         0         0         0         0
         0         0         0         0         0         0         0         0
         0         0         0         0         0         0         0         0
         0         0         0         0         0         0         0         0
         0         0         0         0         0         0         0         0
         0         0         0         0         0         0         0         0
         0         0         0         0         0         0         0         0
         0         0         0         0         0         0         0         0
         0         0         0         0         0         0         0         0
         0         0         0         0         0         0         0         0
         0         0         0         0         0         0         0         0
         0         0         0         0         0         0         0         0
         0         0         0         0         0         0         0         0
         0         0         0         0         0         0         0         0
         0         0         0         0         0         0         0         0
         0         0         0         0         0         0         0         0
         0         0         0         0         0         0         0         0
         0         0         0         0         0         0         0         0
         0         0         0         0         0         0         0         0
         0         0         0         0         0         0         0         0
         0         0         0         0         0         0         0         0
         0         0         0         0         0         0         0         0
         0         0         0         0         0         0         0         0
         0         0         0         0         0         0         0         0
         0         0         0         0         0         0         0         0
         0         0         0         0         0         0         0         0
         0         0         0         0         0         0         0         0
         0         0         0         0         0         0         0         0
         0         0         0         0         0         0         0         0
         0         0         0         0         0         0         0         0
         0         0         0         0         0         0         0         0
         0         0         0         0         0         0         0         0
         0         0         0         0         0         0         0         0
         0         0         0         0         0         0         0         0
         0         0         0         0         0         0         0         0
         0         0         0         0         0         0         0         0
         0         0         0         0         0         0         0         0
         0         0         0         0         0         0         0         0
         0         0         0         0         0         0         0         0
         0         0         0         0         0         0         0         0
         0         0         0         0         0         0         0         0
         0         0         0         0         0         0         0         0
         0         0         0         0         0         0         0         0
         0         0         0         0         0         0         0         0
         0         0         0         0         0         0         0         0
         0         0         0         0         0         0         0         0
         0         0         0         0         0         0         0         0
         0         0         0         0         0         0         0         0
         0         0         0         0         0         0         0         0
         0         0         0         0         0         0         0         0
         0         0         0         0         0         0         0         0
         0         0         0         0         0         0         0         0
         0         0         0         0         0         0         0         0
         0         0         0         0         0         0         0         0
         0         0         0         0         0         0         0         0
         0         0         0         0         0         0         0         0
         0         0         0         0         0         0         0         0
         0         0         0         0         0         0         0         0
         0         0         0         0         0         0         0         0
         0         0         0         0         0         0         0         0
         0         0         0         0         0         0         0         0
         0         0         0         0         0         0         0         0
         0         0         0         0         0         0         0         0
         0         0         0         0         0         0         0         0
         0         0         0         0         0         0         0         0
         0         0         0         0         0         0         0         0
         0         0         0         0         0         0         0         0
         0         0         0         0         0         0         0         0
         0         0         0         0         0         0         0         0
         0         0         0         0         0         0         0         0
         0         0         0         0         0         0         0         0
         0         0         0         0         0         0         0         0
         0         0         0         0         0         0         0         0
         0         0         0         0         0         0         0         0
         0         0         0         0         0         0         0         0
         0         0         0         0         0         0         0         0
         0         0         0         0         0         0         0         0
         0         0         0         0         0         0         0         0
         0         0         0         0         0         0         0         0
         0         0         0         0         0         0         0         0
         0         0         0         0         0         0         0         0
         0         0         0         0         0         0         0         0
         0         0         0         0         0         0         0         0
         0         0         0         0         0         0         0         0
         0         0         0         0         0         0         0         0
         0         0         0         0         0         0         0         0
         0         0         0         0         0         0         0         0
         0         0         0         0         0         0         0         0
         0         0         0         0         0         0         0         0
         0         0         0         0         0         0         0         0
         0         0         0         0         0         0         0         0
         0         0         0         0         0         0         0         0
         0         0         0         0         0         0         0         0
         0         0         0         0         0         0         0         0
         0         0         0         0         0         0         0         0
         0         0         0         0         0         0         0         0
         0         0         0         0         0         0         0         0
         0         0         0         0         0         0         0         0
         0         0         0         0         0         0         0         0
         0         0         0         0         0         0         0         0
         0         0         0         0         0         0         0         0
         0         0         0         0         0         0         0         0
         0         0         0         0         0         0         0         0
         0         0         0         0         0         0         0         0
         0         0         0         0         0         0         0         0
         0         0         0         0         0         0         0         0
         0         0         0         0         0         0         0         0
         0         0         0         0         0         0         0         0
         0         0         0         0         0         0         0         0
         0         0         0         0         0         0         0         0
         0         0         0         0         0         0         0         0
         0         0         0         0         0         0         0         0
         0         0         0         0         0         0         0         0
         0         0         0         0         0         0         0         0
         0         0         0         0         0         0         0         0
         0         0         0         0         0         0         0         0
         0         0         0         0         0         0         0         0
         0         0         0         0         0         0         0         0
         0         0         0         0         0         0         0         0
         0         0         0         0         0         0         0         0
         0         0         0         0         0         0         0         0
         0         0         0         0         0         0         0         0
         0         0         0         0         0         0         0         0
         0         0         0         0         0         0         0         0
         0         0         0         0         0         0         0         0
         0         0         0         0         0         0         0         0
         0         0         0         0         0         0         0         0
         0         0         0         0         0         0         0         0
         0         0         0         0         0         0         0         0
         0         0         0         0         0         0         0         0
         0         0         0         0         0         0         0         0
         0         0         0         0         0         0         0         0
         0         0         0         0         0         0         0         0
         0         0         0         0         0         0         0         0
         0         0         0         0         0         0         0         0
         0         0         0         0         0         0         0         0
         0         0         0         0         0         0         0         0
         0         0         0         0         0         0         0         0
         0         0         0         0         0         0         0         0
         0         0         0         0         0         0         0         0
         0         0         0         0         0         0         0         0
         0         0         0         0         0         0         0         0
         0         0         0         0         0         0         0         0
         0         0         0         0         0         0         0         0
         0         0         0         0         0         0         0         0
         0         0         0         0         0         0         0         0
         0         0         0         0         0         0         0         0
         0         0         0         0         0         0         0         0
         0         0         0         0         0         0         0         0
         0         0         0         0         0         0         0         0
         0         0         0         0         0         0         0         0
         0         0         0         0         0         0         0         0
         0         0         0         0         0         0         0         0
         0         0         0         0         0         0         0         0
         0         0         0         0         0         0         0         0
         0         0         0         0         0         0         0         0
         0         0         0         0         0         0         0         0
         0         0         0         0         0         0         0         0
         0         0         0         0         0         0         0         0
         0         0         0         0         0         0         0         0
         0         0         0         0         0         0         0         0
         0         0         0         0         0         0         0         0
         0         0         0         0         0         0         0         0
         0         0         0         0         0         0         0         0
         0         0         0         0         0         0         0         0
         0         0         0         0         0         0         0         0
         0         0         0         0         0         0         0         0
         0         0         0         0         0         0         0         0
         0         0         0         0         0         0         0         0
         0         0         0         0         0         0         0         0
         0         0         0         0         0         0         0         0
         0         0         0         0         0         0         0         0
         0         0         0         0         0         0         0         0
         0         0         0         0         0         0         0         0
         0         0         0         0         0         0         0         0
         0         0         0         0         0         0         0         0
         0         0         0         0         0         0         0         0
         0         0         0         0         0         0         0         0
         0         0         0         0         0         0         0         0
         0         0         0         0         0         0         0         0
         0         0         0         0         0         0         0         0
         0         0         0         0         0         0         0         0
         0         0         0         0         0         0         0         0
         0         0         0         0         0         0         0         0
         0         0         0         0         0         0         0         0
         0         0         0         0         0         0         0         0
         0         0         0         0         0         0         0         0
         0         0         0         0         0         0         0         0
         0         0         0         0         0         0         0         0
         0         0         0         0         0         0         0         0
         0         0         0         0         0         0         0         0
         0         0         0         0         0         0         0         0
         0         0         0         0         0         0         0         0
         0         0         0         0         0         0         0         0
         0         0         0         0         0         0         0         0
         0         0         0         0         0         0         0         0
         0         0         0         0         0         0         0         0
         0         0         0         0         0         0         0         0
         0         0         0         0         0         0         0         0
         0         0         0         0         0         0         0         0
         0         0         0         0         0         0         0         0
         0         0         0         0         0         0         0         0
         0         0         0         0         0         0         0         0
         0         0         0         0         0         0         0         0
         0         0         0         0         0         0         0         0
         0         0         0         0         0         0         0         0
         0         0         0         0         0         0         0         0
         0         0         0         0         0         0         0         0
         0         0         0         0         0         0         0         0
         0         0         0         0         0         0         0         0
         0         0         0         0         0         0         0         0
         0         0         0         0         0         0         0         0
         0         0         0         0         0         0         0         0
         0         0         0         0         0         0         0         0
         0         0         0         0         0         0         0         0
         0         0         0         0         0         0         0         0
         0         0         0         0         0         0         0         0
         0         0         0         0         0         0         0         0
         0         0         0         0         0         0         0         0
         0         0         0         0         0         0         0         0
         0         0         0         0         0         0         0         0
         0         0         0         0         0         0         0         0
         0         0         0         0         0         0         0         0
         0         0         0         0         0         0         0         0
         0         0         0         0         0         0         0         0
         0         0         0         0         0         0         0         0
         0         0         0         0         0         0         0         0
         0         0         0         0         0         0         0         0
         0         0         0         0         0         0         0         0
         0         0         0         0         0         0         0         0
         0         0         0         0         0         0         0         0
         0         0         0         0         0         0         0         0
         0         0         0         0         0         0         0         0
         0         0         0         0         0         0         0         0
         0         0         0         0         0         0         0         0
         0         0         0         0         0         0         0         0
         0         0         0         0         0         0         0         0
         0         0         0         0         0         0         0         0
         0         0         0         0         0         0         0         0
         0         0         0         0         0         0         0         0
         0         0         0         0         0         0         0         0
         0         0         0         0         0         0         0         0
         0         0         0         0         0         0         0         0
         0         0         0         0         0         0         0         0
         0         0         0         0         0         0         0         0
         0         0         0         0         0         0         0         0
         0         0         0         0         0         0         0         0
         0         0         0         0         0         0         0         0
         0         0         0         0         0         0         0         0
         0         0         0         0         0         0         0         0
         0         0         0         0         0         0         0         0
         0         0         0         0         0         0         0         0
         0         0         0         0         0         0         0         0
         0         0         0         0         0         0         0         0
         0         0         0         0         0         0         0         0
         0         0         0         0         0         0         0         0
         0         0         0         0         0         0         0         0
         0         0         0         0         0         0         0         0
         0         0         0         0         0         0         0         0
         0         0         0         0         0         0         0         0
         0         0         0         0         0         0         0         0
         0         0         0         0         0         0         0         0
         0         0         0         0         0         0         0         0
         0         0         0         0         0         0         0         0
         0         0         0         0         0         0         0         0
         0         0         0         0         0         0         0         0
         0         0         0         0         0         0         0         0
         0         0         0         0         0         0         0         0
         0         0         0         0         0         0         0         0
         0         0         0         0         0         0         0         0
         0         0         0         0         0         0         0         0
         0         0         0         0         0         0         0         0
         0         0         0         0         0         0         0         0
         0         0         0         0         0         0         0         0
         0         0         0         0         0         0         0         0
         0         0         0         0         0         0         0         0
         0         0         0         0         0         0         0         0
         0         0         0         0         0         0         0         0
         0         0         0         0         0         0         0         0
         0         0         0         0         0         0         0         0
         0         0         0         0         0         0         0         0
         0         0         0         0         0         0         0         0
         0         0         0         0         0         0         0         0
         0         0         0         0         0         0         0         0
         0         0         0         0         0         0         0         0
         0         0         0         0         0         0         0         0
         0         0         0         0         0         0         0         0
         0         0         0         0         0         0         0         0
         0         0         0         0         0         0         0         0
         0         0         0         0         0         0         0         0
         0         0         0         0         0         0         0         0
         0         0         0         0         0         0         0         0
         0         0         0         0         0         0         0         0
         0         0         0         0         0         0         0         0
         0         0         0         0         0         0         0         0
         0         0         0         0         0         0         0         0
         0         0         0         0         0         0         0         0
         0         0         0         0         0         0         0         0
         0         0         0         0         0         0         0         0
         0         0         0         0         0         0         0         0
         0         0         0         0         0         0         0         0
         0         0         0         0         0         0         0         0
         0         0         0         0         0         0         0         0
         0         0         0         0         0         0         0         0
         0         0         0         0         0         0         0         0
         0         0         0         0         0         0         0         0
         0         0         0         0         0         0         0         0
         0         0         0         0         0         0         0         0
         0         0         0         0         0         0         0         0
         0         0         0         0         0         0         0         0
         0         0         0         0         0         0         0         0
         0         0         0         0         0         0         0         0
         0         0         0         0         0         0         0         0
         0         0         0         0         0         0         0         0
         0         0         0         0         0         0         0         0
         0         0         0         0         0         0         0         0
         0         0         0         0         0         0         0         0
         0         0         0         0         0         0         0         0
         0         0         0         0         0         0         0         0
         0         0         0         0         0         0         0         0
         0         0         0         0         0         0         0         0
         0         0         0         0         0         0         0         0
         0         0         0         0         0         0         0         0
         0         0         0         0         0         0         0         0
         0         0         0         0         0         0         0         0
         0         0         0         0         0         0         0         0
         0         0         0         0         0         0         0         0
         0         0         0         0         0         0         0         0
         0         0         0         0         0         0         0         0
         0         0         0         0         0         0         0         0
         0         0         0         0         0         0         0         0
         0         0         0         0         0         0         0         0
         0         0         0         0         0         0         0         0
         0         0         0         0         0         0         0         0
         0         0         0         0         0         0         0         0
         0         0         0         0         0         0         0         0
         0         0         0         0         0         0         0         0
         0         0         0         0         0         0         0         0
         0         0         0         0         0         0         0         0
         0         0         0         0         0         0         0         0
         0         0         0         0         0         0         0         0
         0         0         0         0         0         0         0         0
         0         0         0         0         0         0         0         0
         0         0         0         0         0         0         0         0
         0         0         0         0         0         0         0         0
         0         0         0         0         0         0         0         0
         0         0         0         0         0         0         0         0
         0         0         0         0         0         0         0         0
         0         0         0         0         0         0         0         0
         0         0         0         0         0         0         0         0
         0         0         0         0         0         0         0         0
         0         0         0         0         0         0         0         0
         0         0         0         0         0         0         0         0
         0         0         0         0         0         0         0         0
         0         0         0         0         0         0         0         0
         0         0         0         0         0         0         0         0
         0         0         0         0         0         0         0         0
         0         0         0         0         0         0         0         0
         0         0         0         0         0         0         0         0
         0         0         0         0         0         0         0         0
         0         0         0         0         0         0         0         0
         0         0         0         0         0         0         0         0
         0         0         0         0         0         0         0         0
         0         0         0         0         0         0         0         0
         0         0         0         0         0         0         0         0
         0         0         0         0         0         0         0         0
         0         0         0         0         0         0         0         0
         0         0         0         0         0         0         0         0
         0         0         0         0         0         0         0         0
         0         0         0         0         0         0         0         0
         0         0         0         0         0         0         0         0
         0         0         0         0         0         0         0         0
         0         0         0         0         0         0         0         0
         0         0         0         0         0         0         0         0
         0         0         0         0         0         0         0         0
         0         0         0         0         0         0         0         0
         0         0         0         0         0         0         0         0
         0         0         0         0         0         0         0         0
         0         0         0         0         0         0         0         0
         0         0         0         0         0         0         0         0
         0         0         0         0         0         0         0         0
         0         0         0         0         0         0         0         0
         0         0         0         0         0         0         0         0
         0         0         0         0         0         0         0         0
         0         0         0         0         0         0         0         0
         0         0         0         0         0         0         0         0
         0         0         0         0         0         0         0         0
         0         0         0         0         0         0         0         0
         0         0         0         0         0         0         0         0
         0         0         0         0         0         0         0         0
         0         0         0         0         0         0         0         0
         0         0         0         0         0         0         0         0
         0         0         0         0         0         0         0         0
         0         0         0         0         0         0         0         0
         0         0         0         0         0         0         0         0
         0         0         0         0         0         0         0         0
         0         0         0         0         0         0         0         0
         0         0         0         0         0         0         0         0
         0         0         0         0         0         0         0         0
         0         0         0         0         0         0         0         0
         0         0         0         0         0         0         0         0
         0         0         0         0         0         0         0         0
         0         0         0         0         0         0         0         0
         0         0         0         0         0         0         0         0
         0         0         0         0         0         0         0         0
         0         0         0         0         0         0         0         0
         0         0         0         0         0         0         0         0
         0         0         0         0         0         0         0         0
         0         0         0         0         0         0         0         0
         0         0         0         0         0         0         0         0
         0         0         0         0         0         0         0         0
         0         0         0         0         0         0         0         0
         0         0         0         0         0         0         0         0
         0         0         0         0         0         0         0         0
         0         0         0         0         0         0         0         0
         0         0         0         0         0         0         0         0
         0         0         0         0         0         0         0         0
         0         0         0         0         0         0         0         0
         0         0         0         0         0         0         0         0
         0         0         0         0         0         0         0         0
         0         0         0         0         0         0         0         0
         0         0         0         0         0         0         0         0
         0         0         0         0         0         0         0         0
         0         0         0         0         0         0         0         0
         0         0         0         0         0         0         0         0
         0         0         0         0         0         0         0         0
         0         0         0         0         0         0         0         0
         0         0         0         0         0         0         0         0
         0         0         0         0         0         0         0         0
         0         0         0         0         0         0         0         0
         0         0         0         0         0         0         0         0
         0         0         0         0         0         0         0         0
         0         0         0         0         0         0         0         0
         0         0         0         0         0         0         0         0
         0         0         0         0         0         0         0         0
         0         0         0         0         0         0         0         0
         0         0         0         0         0         0         0         0
         0         0         0         0         0         0         0         0
         0         0         0         0         0         0         0         0
         0         0         0         0         0         0         0         0
         0         0         0         0         0         0         0         0
         0         0         0         0         0         0         0         0
         0         0         0         0         0         0         0         0
         0         0         0         0         0         0         0         0
         0         0         0         0         0         0         0         0
         0         0         0         0         0         0         0         0
         0         0         0         0         0         0         0         0
         0         0         0         0         0         0         0         0
         0         0         0         0         0         0         0         0
         0         0         0         0         0         0         0         0
         0         0         0         0         0         0         0         0
         0         0         0         0         0         0         0         0
         0         0         0         0         0         0         0         0
         0         0         0         0         0         0         0         0
         0         0         0         0         0         0         0         0
         0         0         0         0         0         0         0         0
         0         0         0         0         0         0         0         0
         0         0         0         0         0         0         0         0
         0         0         0         0         0         0         0         0
         0         0         0         0         0         0         0         0
         0         0         0         0         0         0         0         0
         0         0         0         0         0         0         0         0
         0         0         0         0         0         0         0         0
         0         0         0         0         0         0         0         0
         0         0         0         0         0         0         0         0
         0         0         0         0         0         0         0         0
         0         0         0         0         0         0         0         0
         0         0         0         0         0         0         0         0
         0         0         0         0         0         0         0         0
         0         0         0         0         0         0         0         0
         0         0         0         0         0         0         0         0
         0         0         0         0         0         0         0         0
         0         0         0         0         0         0         0         0
         0         0         0         0         0         0         0         0
         0         0         0         0         0         0         0         0
         0         0         0         0         0         0         0         0
         0         0         0         0         0         0         0         0
         0         0         0         0         0         0         0         0
         0         0         0         0         0         0         0         0
         0         0         0         0         0         0         0         0
         0         0         0         0         0         0         0         0
         0         0         0         0         0         0         0         0
         0         0         0         0         0         0         0         0
         0         0         0         0         0         0         0         0
         0         0         0         0         0         0         0         0
         0         0         0         0         0         0         0         0
         0         0         0         0         0         0         0         0
         0         0         0         0         0         0         0         0
         0         0         0         0         0         0         0         0
         0         0         0         0         0         0         0         0
         0         0         0         0         0         0         0         0
         0         0         0         0         0         0         0         0
         0         0         0         0         0         0         0         0
         0         0         0         0         0         0         0         0
         0         0         0         0         0         0         0         0
         0         0         0         0         0         0         0         0
         0         0         0         0         0         0         0         0
         0         0         0         0         0         0         0         0
         0         0         0         0         0         0         0         0
         0         0         0         0         0         0         0         0
         0         0         0         0         0         0         0         0
         0         0         0         0         0         0         0         0
         0         0         0         0         0         0         0         0
         0         0         0         0         0         0         0         0
         0         0         0         0         0         0         0         0
         0         0         0         0         0         0         0         0
         0         0         0         0         0         0         0         0
         0         0         0         0         0         0         0         0
         0         0         0         0         0         0         0         0
         0         0         0         0         0         0         0         0
         0         0         0         0         0         0         0         0
         0         0         0         0         0         0         0         0
         0         0         0         0         0         0         0         0
         0         0         0         0         0         0         0         0
         0         0         0         0         0         0         0         0
         0         0         0         0         0         0         0         0
         0         0         0         0         0         0         0         0
         0         0         0         0         0         0         0         0
         0         0         0         0         0         0         0         0
         0         0         0         0         0         0         0         0
         0         0         0         0         0         0         0         0
         0         0         0         0         0         0         0         0
         0         0         0         0         0         0         0         0
         0         0         0         0         0         0         0         0
         0         0         0         0         0         0         0         0
         0         0         0         0         0         0         0         0
         0         0         0         0         0         0         0         0
         0         0         0         0         0         0         0         0
         0         0         0         0         0         0         0         0
         0         0         0         0         0         0         0         0
         0         0         0         0         0         0         0         0
         0         0         0         0         0         0         0         0
         0         0         0         0         0         0         0         0
         0         0         0         0         0         0         0         0
         0         0         0         0         0         0         0         0
         0         0         0         0         0         0         0         0
         0         0         0         0         0         0         0         0
         0         0         0         0         0         0         0         0
         0         0         0         0         0         0         0         0
         0         0         0         0         0         0         0         0
         0         0         0         0         0         0         0         0
         0         0         0         0         0         0         0         0
         0         0         0         0         0         0         0         0
         0         0         0         0         0         0         0         0
         0         0         0         0         0         0         0         0
         0         0         0         0         0         0         0         0
         0         0         0         0         0         0         0         0
         0         0         0         0         0         0         0         0
         0         0         0         0         0         0         0         0
         0         0         0         0         0         0         0         0
         0         0         0         0         0         0         0         0
         0         0         0         0         0         0         0         0
         0         0         0         0         0         0         0         0
         0         0         0         0         0         0         0         0
         0         0         0         0         0         0         0         0
         0         0         0         0         0         0         0         0
         0         0         0         0         0         0         0         0
         0         0         0         0         0         0         0         0
         0         0         0         0         0         0         0         0
         0         0         0         0         0         0         0         0
         0         0         0         0         0         0         0         0
         0         0         0         0         0         0         0         0
         0         0         0         0         0         0         0         0
         0         0         0         0         0         0         0         0
         0         0         0         0         0         0         0         0
         0         0         0         0         0         0         0         0
         0         0         0         0         0         0         0         0
         0         0         0         0         0         0         0         0
         0         0         0         0         0         0         0         0
         0         0         0         0         0         0         0         0
         0         0         0         0         0         0         0         0
         0         0         0         0         0         0         0         0
         0         0         0         0         0         0         0         0
         0         0         0         0         0         0         0         0
         0         0         0         0         0         0         0         0
         0         0         0         0         0         0         0         0
         0         0         0         0         0         0         0         0
         0         0         0         0         0         0         0         0
         0         0         0         0         0         0         0         0
         0         0         0         0         0         0         0         0
         0         0         0         0         0         0         0         0
         0         0         0         0         0         0         0         0
         0         0         0         0         0         0         0         0
         0         0         0         0         0         0         0         0
         0         0         0         0         0         0         0         0
         0         0         0         0         0         0         0         0
         0         0         0         0         0         0         0         0
         0         0         0         0         0         0         0         0
         0         0         0         0         0         0         0         0
         0         0         0         0         0         0         0         0
         0         0         0         0         0         0         0         0
         0         0         0         0         0         0         0         0
         0         0         0         0         0         0         0         0
         0         0         0         0         0         0         0         0
         0         0         0         0         0         0         0         0
         0         0         0         0         0         0         0         0
         0         0         0         0         0         0         0         0
         0         0         0         0         0         0         0         0
         0         0         0         0         0         0         0         0
         0         0         0         0         0         0         0         0
         0         0         0         0         0         0         0         0
         0         0         0         0         0         0         0         0
         0         0         0         0         0         0         0         0
         0         0         0         0         0         0         0         0
         0         0         0         0         0         0         0         0
         0         0         0         0         0         0         0         0
         0         0         0         0         0         0         0         0
         0         0         0         0         0         0         0         0
         0         0         0         0         0         0         0         0
         0         0         0         0         0         0         0         0
         0         0         0         0         0         0         0         0
         0         0         0         0         0         0         0         0
         0         0         0         0         0         0         0         0
         0         0         0         0         0         0         0         0
         0         0         0         0         0         0         0         0
         0         0         0         0         0         0         0         0
         0         0         0         0         0         0         0         0
         0         0         0         0         0         0         0         0
         0         0         0         0         0         0         0         0
         0         0         0         0         0         0         0         0
         0         0         0         0         0         0         0         0
         0         0         0         0         0         0         0         0
         0         0         0         0         0         0         0         0
         0         0         0         0         0         0         0         0
         0         0         0         0         0         0         0         0
         0         0         0         0         0         0         0         0
         0         0         0         0         0         0         0         0
         0         0         0         0         0         0         0         0
         0         0         0         0         0         0         0         0
         0         0         0         0         0         0         0         0
         0         0         0         0         0         0         0         0
         0         0         0         0         0         0         0         0
         0         0         0         0         0         0         0         0
         0         0         0         0         0         0         0         0
         0         0         0         0         0         0         0         0
         0         0         0         0         0         0         0         0
         0         0         0         0         0         0         0         0
         0         0         0         0         0         0         0         0
         0         0         0         0         0         0         0         0
         0         0         0         0         0         0         0         0
         0         0         0         0         0         0         0         0
         0         0         0         0         0         0         0         0
         0         0         0         0         0         0         0         0
         0         0         0         0         0         0         0         0
         0         0         0         0         0         0         0         0
         0         0         0         0         0         0         0         0
         0         0         0         0         0         0         0         0
         0         0         0         0         0         0         0         0
         0         0         0         0         0         0         0         0
         0         0         0         0         0         0         0         0
         0         0         0         0         0         0         0         0
         0         0         0         0         0         0         0         0
         0         0         0         0         0         0         0         0
         0         0         0         0         0         0         0         0
         0         0         0         0         0         0         0         0
         0         0         0         0         0         0         0         0
         0         0         0         0         0         0         0         0
         0         0         0         0         0         0         0         0
         0         0         0         0         0         0         0         0
         0         0         0         0         0         0         0         0
         0         0         0         0         0         0         0         0
         0         0         0         0         0         0         0         0
         0         0         0         0         0         0         0         0
         0         0         0         0         0         0         0         0
         0         0         0         0         0         0         0         0
         0         0         0         0         0         0         0         0
         0         0         0         0         0         0         0         0
         0         0         0         0         0         0         0         0
         0         0         0         0         0         0         0         0
         0         0         0         0         0         0         0         0
         0         0         0         0         0         0         0         0
         0         0         0         0         0         0         0         0
         0         0         0         0         0         0         0         0
         0         0         0         0         0         0         0         0
         0         0         0         0         0         0         0         0
         0         0         0         0         0         0         0         0
         0         0         0         0         0         0         0         0
         0         0         0         0         0         0         0         0
         0         0         0         0         0         0         0         0
         0         0         0         0         0         0         0         0
         0         0         0         0         0         0         0         0
         0         0         0         0         0         0         0         0
         0         0         0         0         0         0         0         0
         0         0         0         0         0         0         0         0
         0         0         0         0         0         0         0         0
         0         0         0         0         0         0         0         0
         0         0         0         0         0         0         0         0
         0         0         0         0         0         0         0         0
         0         0         0         0         0         0         0         0
         0         0         0         0         0         0         0         0
         0         0         0         0         0         0         0         0
         0         0         0         0         0         0         0         0
         0         0         0         0         0         0         0         0
         0         0         0         0         0         0         0         0
         0         0         0         0         0         0         0         0
         0         0         0         0         0         0         0         0
         0         0         0         0         0         0         0         0
         0         0         0         0         0         0         0         0
         0         0         0         0         0         0         0         0
         0         0         0         0         0         0         0         0
         0         0         0         0         0         0         0         0
         0         0         0         0         0         0         0         0
         0         0         0         0         0         0         0         0
         0         0         0         0         0         0         0         0
         0         0         0         0         0         0         0         0
         0         0         0         0         0         0         0         0
         0         0         0         0         0         0         0         0
         0         0         0         0         0         0         0         0
         0         0         0         0         0         0         0         0
         0         0         0         0         0         0         0         0
         0         0         0         0         0         0         0         0
         0         0         0         0         0         0         0         0
         0         0         0         0         0         0         0         0
         0         0         0         0         0         0         0         0
         0         0         0         0         0         0         0         0
         0         0         0         0         0         0         0         0
         0         0         0         0         0         0         0         0
         0         0         0         0         0         0         0         0
         0         0         0         0         0         0         0         0
         0         0         0         0         0         0         0         0
         0         0         0         0         0         0         0         0
         0         0         0         0         0         0         0         0
         0         0         0         0         0         0         0         0
         0         0         0         0         0         0         0         0
         0         0         0         0         0         0         0         0
         0         0         0         0         0         0         0         0
         0         0         0         0         0         0         0         0
         0         0         0         0         0         0         0         0
         0         0         0         0         0         0         0         0
         0         0         0         0         0         0         0         0
         0         0         0         0         0         0         0         0
         0         0         0         0         0         0         0         0
         0         0         0         0         0         0         0         0
         0         0         0         0         0         0         0         0
         0         0         0         0         0         0         0         0
         0         0         0         0         0         0         0         0
         0         0         0         0         0         0         0         0
         0         0         0         0         0         0         0         0
         0         0         0         0         0         0         0         0
         0         0         0         0         0         0         0         0
         0         0         0         0         0         0         0         0
         0         0         0         0         0         0         0         0
         0         0         0         0         0         0         0         0
         0         0         0         0         0         0         0         0
         0         0         0         0         0         0         0         0
         0         0         0         0         0         0         0         0
         0         0         0         0         0         0         0         0
         0         0         0         0         0         0         0         0
         0         0         0         0         0         0         0         0
         0         0         0         0         0         0         0         0
         0         0         0         0         0         0         0         0
         0         0         0         0         0         0         0         0
         0         0         0         0         0         0         0         0
         0         0         0         0         0         0         0         0
         0         0         0         0         0         0         0         0
         0         0         0         0         0         0         0         0
         0         0         0         0         0         0         0         0
         0         0         0         0         0         0         0         0
         0         0         0         0         0         0         0         0
         0         0         0         0         0         0         0         0
         0         0         0         0         0         0         0         0
         0         0         0         0         0         0         0         0
         0         0         0         0         0         0         0         0
         0         0         0         0         0         0         0         0
         0         0         0         0         0         0         0         0
         0         0         0         0         0         0         0         0
         0         0         0         0         0         0         0         0
         0         0         0         0         0         0         0         0
         0         0         0         0         0         0         0         0
         0         0         0         0         0         0         0         0
         0         0         0         0         0         0         0         0
         0         0         0         0         0         0         0         0
         0         0         0         0         0         0         0         0
         0         0         0         0         0         0         0         0
         0         0         0         0         0         0         0         0
         0         0         0         0         0         0         0         0
         0         0         0         0         0         0         0         0
         0         0         0         0         0         0         0         0
         0         0         0         0         0         0         0         0
         0         0         0         0         0         0         0         0
         0         0         0         0         0         0         0         0
         0         0         0         0         0         0         0         0
         0         0         0         0         0         0         0         0
         0         0         0         0         0         0         0         0
         0         0         0         0         0         0         0         0
         0         0         0         0         0         0         0         0
         0         0         0         0         0         0         0         0
         0         0         0         0         0         0         0         0
         0         0         0         0         0         0         0         0
         0         0         0         0         0         0         0         0
         0         0         0         0         0         0         0         0
         0         0         0         0         0         0         0         0
         0         0         0         0         0         0         0         0
         0         0         0         0         0         0         0         0
         0         0         0         0         0         0         0         0
         0         0         0         0         0         0         0         0
         0         0         0         0         0         0         0         0
         0         0         0         0         0         0         0         0
         0         0         0         0         0         0         0         0
         0         0         0         0         0         0         0         0
         0         0         0         0         0         0         0         0
         0         0         0         0         0         0         0         0
         0         0         0         0         0         0         0         0
         0         0         0         0         0         0         0         0
         0         0         0         0         0         0         0         0
         0         0         0         0         0         0         0         0
         0         0         0         0         0         0         0         0
         0         0         0         0         0         0         0         0
         0         0         0         0         0         0         0         0
         0         0         0         0         0         0         0         0
         0         0         0         0         0         0         0         0
         0         0         0         0         0         0         0         0
         0         0         0         0         0         0         0         0
         0         0         0         0         0         0         0         0
         0         0         0         0         0         0         0         0
         0         0         0         0         0         0         0         0
         0         0         0         0         0         0         0         0
         0         0         0         0         0         0         0         0
         0         0         0         0         0         0         0         0
         0         0         0         0         0         0         0         0
         0         0         0         0         0         0         0         0
         0         0         0         0         0         0         0         0
         0         0         0         0         0         0         0         0
         0         0         0         0         0         0         0         0
         0         0         0         0         0         0         0         0
         0         0         0         0         0         0         0         0
         0         0         0         0         0         0         0         0
         0         0         0         0         0         0         0         0
         0         0         0         0         0         0         0         0
         0         0         0         0         0         0         0         0
         0         0         0         0         0         0         0         0
         0         0         0         0         0         0         0         0
         0         0         0         0         0         0         0         0
         0         0         0         0         0         0         0         0
         0         0         0         0         0         0         0         0
         0         0         0         0         0         0         0         0
         0         0         0         0         0         0         0         0
         0         0         0         0         0         0         0         0
         0         0         0         0         0         0         0         0
         0         0         0         0         0         0         0         0
         0         0         0         0         0         0         0         0
         0         0         0         0         0         0         0         0
         0         0         0         0         0         0         0         0
         0         0         0         0         0         0         0         0
         0         0         0         0         0         0         0         0
         0         0         0         0         0         0         0         0
         0         0         0         0         0         0         0         0
         0         0         0         0         0         0         0         0
         0         0         0         0         0         0         0         0
         0         0         0         0         0         0         0         0
         0         0         0         0         0         0         0         0
         0         0         0         0         0         0         0         0
         0         0         0         0         0         0         0         0
         0         0         0         0         0         0         0         0
         0         0         0         0         0         0         0         0
         0         0         0         0         0         0         0         0
         0         0         0         0         0         0         0         0
         0         0         0         0         0         0         0         0
         0         0         0         0         0         0         0         0
         0         0         0         0         0         0         0         0
         0         0         0         0         0         0         0         0
         0         0         0         0         0         0         0         0
         0         0         0         0         0         0         0         0
         0         0         0         0         0         0         0         0
         0         0         0         0         0         0         0         0
         0         0         0         0         0         0         0         0
         0         0         0         0         0         0         0         0
         0         0         0         0         0         0         0         0
         0         0         0         0         0         0         0         0
         0         0         0         0         0         0         0         0
         0         0         0         0         0         0         0         0
         0         0         0         0         0         0         0         0
         0         0         0         0         0         0         0         0
         0         0         0         0         0         0         0         0
         0         0         0         0         0         0         0         0
         0         0         0         0         0         0         0         0
         0         0         0         0         0         0         0         0
         0         0         0         0         0         0         0         0
         0         0         0         0         0         0         0         0
         0         0         0         0         0         0         0         0
         0         0         0         0         0         0         0         0
         0         0         0         0         0         0         0         0
         0         0         0         0         0         0         0         0
         0         0         0         0         0         0         0         0
         0         0         0         0         0         0         0         0
         0         0         0         0         0         0         0         0
         0         0         0         0         0         0         0         0
         0         0         0         0         0         0         0         0
         0         0         0         0         0         0         0         0
         0         0         0         0         0         0         0         0
         0         0         0         0         0         0         0         0
         0         0         0         0         0         0         0         0
         0         0         0         0         0         0         0         0
         0         0         0         0         0         0         0         0
         0         0         0         0         0         0         0         0
         0         0         0         0         0         0         0         0
         0         0         0         0         0         0         0         0
         0         0         0         0         0         0         0         0
         0         0         0         0         0         0         0         0
         0         0         0         0         0         0         0         0
         0         0         0         0         0         0         0         0
         0         0         0         0         0         0         0         0
         0         0         0         0         0         0         0         0
         0         0         0         0         0         0         0         0
         0         0         0         0         0         0         0         0
         0         0         0         0         0         0         0         0
         0         0         0         0         0         0         0         0
         0         0         0         0         0         0         0         0
         0         0         0         0         0         0         0         0
         0         0         0         0         0         0         0         0
         0         0         0         0         0         0         0         0
         0         0         0         0         0         0         0         0
         0         0         0         0         0         0         0         0
         0         0         0         0         0         0         0         0
         0         0         0         0         0         0         0         0
         0         0         0         0         0         0         0         0
         0         0         0         0         0         0         0         0
         0         0         0         0         0         0         0         0
         0         0         0         0         0         0         0         0
         0         0         0         0         0         0         0         0
         0         0         0         0         0         0         0         0
         0         0         0         0         0         0         0         0
         0         0         0         0         0         0         0         0
         0         0         0         0         0         0         0         0
         0         0         0         0         0         0         0         0
         0         0         0         0         0         0         0         0
         0         0         0         0         0         0         0         0
         0         0         0         0         0         0         0         0
         0         0         0         0         0         0         0         0
         0         0         0         0         0         0         0         0
         0         0         0         0         0         0         0         0
         0         0         0         0         0         0         0         0
         0         0         0         0         0         0         0         0
         0         0         0         0         0         0         0         0
         0         0         0         0         0         0         0         0
         0         0         0         0         0         0         0         0
         0         0         0         0         0         0         0         0
         0         0         0         0         0         0         0         0
         0         0         0         0         0         0         0         0
         0         0         0         0         0         0         0         0
         0         0         0         0         0         0         0         0
         0         0         0         0         0         0         0         0
         0         0         0         0         0         0         0         0
         0         0         0         0         0         0         0         0
         0         0         0         0         0         0         0         0
         0         0         0         0         0         0         0         0
         0         0         0         0         0         0         0         0
         0         0         0         0         0         0         0         0
         0         0         0         0         0         0         0         0
         0         0         0         0         0         0         0         0
         0         0         0         0         0         0         0         0
         0         0         0         0         0         0         0         0
         0         0         0         0         0         0         0         0
         0         0         0         0         0         0         0         0
         0         0         0         0         0         0         0         0
         0         0         0         0         0         0         0         0
         0         0         0         0         0         0         0         0
         0         0         0         0         0         0         0         0
         0         0         0         0         0         0         0         0
         0         0         0         0         0         0         0         0
         0         0         0         0         0         0         0         0
         0         0         0         0         0         0         0         0
         0         0         0         0         0         0         0         0
         0         0         0         0         0         0         0         0
         0         0         0         0         0         0         0         0
         0         0         0         0         0         0         0         0
         0         0         0         0         0         0         0         0
         0         0         0         0         0         0         0         0
         0         0         0         0         0         0         0         0
         0         0         0         0         0         0         0         0
         0         0         0         0         0         0         0         0
         0         0         0         0         0         0         0         0
         0         0         0         0         0         0         0         0
         0         0         0         0         0         0         0         0
         0         0         0         0         0         0         0         0
         0         0         0         0         0         0         0         0
         0         0         0         0         0         0         0         0
         0         0         0         0         0         0         0         0
         0         0         0         0         0         0         0         0
         0         0         0         0         0         0         0         0
         0         0         0         0         0         0         0         0
         0         0         0         0         0         0         0         0
         0         0         0         0         0         0         0         0
         0         0         0         0         0         0         0         0
         0         0         0         0         0         0         0         0
         0         0         0         0         0         0         0         0
         0         0         0         0         0         0         0         0
         0         0         0         0         0         0         0         0
         0         0         0         0         0         0         0         0
         0         0         0         0         0         0         0         0
         0         0         0         0         0         0         0         0
         0         0         0         0         0         0         0         0
         0         0         0         0         0         0         0         0
         0         0         0         0         0         0         0         0
         0         0         0         0         0         0         0         0
         0         0         0         0         0         0         0         0
         0         0         0         0         0         0         0         0
         0         0         0         0         0         0         0         0
         0         0         0         0         0         0         0         0
         0         0         0         0         0         0         0         0
         0         0         0         0         0         0         0         0
         0         0         0         0         0         0         0         0
         0         0         0         0         0         0         0         0
         0         0         0         0         0         0         0         0
         0         0         0         0         0         0         0         0
         0         0         0         0         0         0         0         0
         0         0         0         0         0         0         0         0
         0         0         0         0         0         0         0         0
         0         0         0         0         0         0         0         0
         0         0         0         0         0         0         0         0
         0         0         0         0         0         0         0         0
         0         0         0         0         0         0         0         0
         0         0         0         0         0         0         0         0
         0         0         0         0         0         0         0         0
         0         0         0         0         0         0         0         0
         0         0         0         0         0         0         0         0
         0         0         0         0         0         0         0         0
         0         0         0         0         0         0         0         0
         0         0         0         0         0         0         0         0
         0         0         0         0         0         0         0         0
         0         0         0         0         0         0         0         0
         0         0         0         0         0         0         0         0
         0         0         0         0         0         0         0         0
         0         0         0         0         0         0         0         0
         0         0         0         0         0         0         0         0
         0         0         0         0         0         0         0         0
         0         0         0         0         0         0         0         0
         0         0         0         0         0         0         0         0
         0         0         0         0         0         0         0         0
         0         0         0         0         0         0         0         0
         0         0         0         0         0         0         0         0
         0         0         0         0         0         0         0         0
         0         0         0         0         0         0         0         0
         0         0         0         0         0         0         0         0
         0         0         0         0         0         0         0         0
         0         0         0         0         0         0         0         0
         0         0         0         0         0         0         0         0
         0         0         0         0         0         0         0         0
         0         0         0         0         0         0         0         0
         0         0         0         0         0         0         0         0
         0         0         0         0         0         0         0         0
         0         0         0         0         0         0         0         0
         0         0         0         0         0         0         0         0
         0         0         0         0         0         0         0         0
         0         0         0         0         0         0         0         0
         0         0         0         0         0         0         0         0
         0         0         0         0         0         0         0         0
         0         0         0         0         0         0         0         0
         0         0         0         0         0         0         0         0
         0         0         0         0         0         0         0         0
         0         0         0         0         0         0         0         0
         0         0         0         0         0         0         0         0
         0         0         0         0         0         0         0         0
         0         0         0         0         0         0         0         0
         0         0         0         0         0         0         0         0
         0         0         0         0         0         0         0         0
         0         0         0         0         0         0         0         0
         0         0         0         0         0         0         0         0
         0         0         0         0         0         0         0         0
         0         0         0         0         0         0         0         0
         0         0         0         0         0         0         0         0
         0         0         0         0         0         0         0         0
         0         0         0         0         0         0         0         0
         0         0         0         0         0         0         0         0
         0         0         0         0         0         0         0         0
         0         0         0         0         0         0         0         0
         0         0         0         0         0         0         0         0
         0         0         0         0         0         0         0         0
         0         0         0         0         0         0         0         0
         0         0         0         0         0         0         0         0
         0         0         0         0         0         0         0         0
         0         0         0         0         0         0         0         0
         0         0         0         0         0         0         0         0
         0         0         0         0         0         0         0         0
         0         0         0         0         0         0         0         0
         0         0         0         0         0         0         0         0
         0         0         0         0         0         0         0         0
         0         0         0         0         0         0         0         0
         0         0         0         0         0         0         0         0
         0         0         0         0         0         0         0         0
         0         0         0         0         0         0         0         0
         0         0         0         0         0         0         0         0
         0         0         0         0         0         0         0         0
         0         0         0         0         0         0         0         0
         0         0         0         0         0         0         0         0
         0         0         0         0         0         0         0         0
         0         0         0         0         0         0         0         0
         0         0         0         0         0         0         0         0
         0         0         0         0         0         0         0         0
         0         0         0         0         0         0         0         0
         0         0         0         0         0         0         0         0
         0         0         0         0         0         0         0         0
         0         0         0         0         0         0         0         0
         0         0         0         0         0         0         0         0
         0         0         0         0         0         0         0         0
         0         0         0         0         0         0         0         0
         0         0         0         0         0         0         0         0
         0         0         0         0         0         0         0         0
         0         0         0         0         0         0         0         0
         0         0         0         0         0         0         0         0
         0         0         0         0         0         0         0         0
         0         0         0         0         0         0         0         0
         0         0         0         0         0         0         0         0
         0         0         0         0         0         0         0         0
         0         0         0         0         0         0         0         0
         0         0         0         0         0         0         0         0
         0         0         0         0         0         0         0         0
         0         0         0         0         0         0         0         0
         0         0         0         0         0         0         0         0
         0         0         0         0         0         0         0         0
         0         0         0         0         0         0         0         0
         0         0         0         0         0         0         0         0
         0         0         0         0         0         0         0         0
         0         0         0         0         0         0         0         0
         0         0         0         0         0         0         0         0
         0         0         0         0         0         0         0         0
         0         0         0         0         0         0         0         0
         0         0         0         0         0         0         0         0
         0         0         0         0         0         0         0         0
         0         0         0         0         0         0         0         0
         0         0         0         0         0         0         0         0
         0         0         0         0         0         0         0         0
         0         0         0         0         0         0         0         0
         0         0         0         0         0         0         0         0
         0         0         0         0         0         0         0         0
         0         0         0         0         0         0         0         0
         0         0         0         0         0         0         0         0
         0         0         0         0         0         0         0         0
         0         0         0         0         0         0         0         0
         0         0         0         0         0         0         0         0
         0         0         0         0         0         0         0         0
         0         0         0         0         0         0         0         0
         0         0         0         0         0         0         0         0
         0         0         0         0         0         0         0         0
         0         0         0         0         0         0         0         0
         0         0         0         0         0         0         0         0
         0         0         0         0         0         0         0         0
         0         0         0         0         0         0         0         0
         0         0         0         0         0         0         0         0
         0         0         0         0         0         0         0         0
         0         0         0         0         0         0         0         0
         0         0         0         0         0         0         0         0
         0         0         0         0         0         0         0         0
         0         0         0         0         0         0         0         0
         0         0         0         0         0         0         0         0
         0         0         0         0         0         0         0         0
         0         0         0         0         0         0         0         0
         0         0         0         0         0         0         0         0
         0         0         0         0         0         0         0         0
         0         0         0         0         0         0         0         0
         0         0         0         0         0         0         0         0
         0         0         0         0         0         0         0         0
         0         0         0         0         0         0         0         0
         0         0         0         0         0         0         0         0
         0         0         0         0         0         0         0         0
         0         0         0         0         0         0         0         0
         0         0         0         0         0         0         0         0
         0         0         0         0         0         0         0         0
         0         0         0         0         0         0         0         0
         0         0         0         0         0         0         0         0
         0         0         0         0         0         0         0         0
         0         0         0         0         0         0         0         0
         0         0         0         0         0         0         0         0
         0         0         0         0         0         0         0         0
         0         0         0         0         0         0         0         0
         0         0         0         0         0         0         0         0
         0         0         0         0         0         0         0         0
         0         0         0         0         0         0         0         0
         0         0         0         0         0         0         0         0
         0         0         0         0         0         0         0         0
         0         0         0         0         0         0         0         0
         0         0         0         0         0         0         0         0
         0         0         0         0         0         0         0         0
         0         0         0         0         0         0         0         0
         0         0         0         0         0         0         0         0
         0         0         0         0         0         0         0         0
         0         0         0         0         0         0         0         0
         0         0         0         0         0         0         0         0
         0         0         0         0         0         0         0         0
         0         0         0         0         0         0         0         0
         0         0         0         0         0         0         0         0
         0         0         0         0         0         0         0         0
         0         0         0         0         0         0         0         0
         0         0         0         0         0         0         0         0
         0         0         0         0         0         0         0         0
         0         0         0         0         0         0         0         0
         0         0         0         0         0         0         0         0
         0         0         0         0         0         0         0         0
         0         0         0         0         0         0         0         0
         0         0         0         0         0         0         0         0
         0         0         0         0         0         0         0         0
         0         0         0         0         0         0         0         0
         0         0         0         0         0         0         0         0
         0         0         0         0         0         0         0         0
         0         0         0         0         0         0         0         0
         0         0         0         0         0         0         0         0
         0         0         0         0         0         0         0         0
         0         0         0         0         0         0         0         0
         0         0         0         0         0         0         0         0
         0         0         0         0         0         0         0         0
         0         0         0         0         0         0         0         0
         0         0         0         0         0         0         0         0
         0         0         0         0         0         0         0         0
         0         0         0         0         0         0         0         0
         0         0         0         0         0         0         0         0
         0         0         0         0         0         0         0         0
         0         0         0         0         0         0         0         0
         0         0         0         0         0         0         0         0
         0         0         0         0         0         0         0         0
         0         0         0         0         0         0         0         0
         0         0         0         0         0         0         0         0
         0         0         0         0         0         0         0         0
         0         0         0         0         0         0         0         0
         0         0         0         0         0         0         0         0
         0         0         0         0         0         0         0         0
         0         0         0         0         0         0         0         0
         0         0         0         0         0         0         0         0
         0         0         0         0         0         0         0         0
         0         0         0         0         0         0         0         0
         0         0         0         0         0         0         0         0
         0         0         0         0         0         0         0         0
         0         0         0         0         0         0         0         0
         0         0         0         0         0         0         0         0
         0         0         0         0         0         0         0         0
         0         0         0         0         0         0         0         0
         0         0         0         0         0         0         0         0
         0         0         0         0         0         0         0         0
         0         0         0         0         0         0         0         0
         0         0         0         0         0         0         0         0
         0         0         0         0         0         0         0         0
         0         0         0         0         0         0         0         0
         0         0         0         0         0         0         0         0
         0         0         0         0         0         0         0         0
         0         0         0         0         0         0         0         0
         0         0         0         0         0         0         0         0
         0         0         0         0         0         0         0         0
         0         0         0         0         0         0         0         0
         0         0         0         0         0         0         0         0
         0         0         0         0         0         0         0         0
         0         0         0         0         0         0         0         0
         0         0         0         0         0         0         0         0
         0         0         0         0         0         0         0         0
         0         0         0         0         0         0         0         0
         0         0         0         0         0         0         0         0
         0         0         0         0         0         0         0         0
         0         0         0         0         0         0         0         0
         0         0         0         0         0         0         0         0
         0         0         0         0         0         0         0         0
         0         0         0         0         0         0         0         0
         0         0         0         0         0         0         0         0
         0         0         0         0         0         0         0         0
         0         0         0         0         0         0         0         0
         0         0         0         0         0         0         0         0
         0         0         0         0         0         0         0         0
         0         0         0         0         0         0         0         0
         0         0         0         0         0         0         0         0
         0         0         0         0         0         0         0         0
         0         0         0         0         0         0         0         0
         0         0         0         0         0         0         0         0
         0         0         0         0         0         0         0         0
         0         0         0         0         0         0         0         0
         0         0         0         0         0         0         0         0
         0         0         0         0         0         0         0         0
         0         0         0         0         0         0         0         0
         0         0         0         0         0         0         0         0
         0         0         0         0         0         0         0         0
         0         0         0         0         0         0         0         0
         0         0         0         0         0         0         0         0
         0         0         0         0         0         0         0         0
         0         0         0         0         0         0         0         0
         0         0         0         0         0         0         0         0
         0         0         0         0         0         0         0         0
         0         0         0         0         0         0         0         0
         0         0         0         0         0         0         0         0
         0         0         0         0         0         0         0         0
         0         0         0         0         0         0         0         0
         0         0         0         0         0         0         0         0
         0         0         0         0         0         0         0         0
         0         0         0         0         0         0         0         0
         0         0         0         0         0         0         0         0
         0         0         0         0         0         0         0         0
         0         0         0         0         0         0         0         0
         0         0         0         0         0         0         0         0
         0         0         0         0         0         0         0         0
         0         0         0         0         0         0         0         0
         0         0         0         0         0         0         0         0
         0         0         0         0         0         0         0         0
         0         0         0         0         0         0         0         0
         0         0         0         0         0         0         0         0
         0         0         0         0         0         0         0         0
         0         0         0         0         0         0         0         0
         0         0         0         0         0         0         0         0
         0         0         0         0         0         0         0         0
         0         0         0         0         0         0         0         0
         0         0         0         0         0         0         0         0
         0         0         0         0         0         0         0         0
         0         0         0         0         0         0         0         0
         0         0         0         0         0         0         0         0
         0         0         0         0         0         0         0         0
         0         0         0         0         0         0         0         0
         0         0         0         0         0         0         0         0
         0         0         0         0         0         0         0         0
         0         0         0         0         0         0         0         0
         0         0         0         0         0         0         0         0
         0         0         0         0         0         0         0         0
         0         0         0         0         0         0         0         0
         0         0         0         0         0         0         0         0
         0         0         0         0         0         0         0         0
         0         0         0         0         0         0         0         0
         0         0         0         0         0         0         0         0
         0         0         0         0         0         0         0         0
         0         0         0         0         0         0         0         0
         0         0         0         0         0         0         0         0
         0         0         0         0         0         0         0         0
         0         0         0         0         0         0         0         0
         0         0         0         0         0         0         0         0
         0         0         0         0         0         0         0         0
         0         0         0         0         0         0         0         0
         0         0         0         0         0         0         0         0
         0         0         0         0         0         0         0         0
         0         0         0         0         0         0         0         0
         0         0         0         0         0         0         0         0
         0         0         0         0         0         0         0         0
         0         0         0         0         0         0         0         0
         0         0         0         0         0         0         0         0
         0         0         0         0         0         0         0         0
         0         0         0         0         0         0         0         0
         0         0         0         0         0         0         0         0
         0         0         0         0         0         0         0         0
         0         0         0         0         0         0         0         0
         0         0         0         0         0         0         0         0
         0         0         0         0         0         0         0         0
         0         0         0         0         0         0         0         0
         0         0         0         0         0         0         0         0
         0         0         0         0         0         0         0         0
         0         0         0         0         0         0         0         0
         0         0         0         0         0         0         0         0
         0         0         0         0         0         0         0         0
         0         0         0         0         0         0         0         0
         0         0         0         0         0         0         0         0
         0         0         0         0         0         0         0         0
         0         0         0         0         0         0         0         0
         0         0         0         0         0         0         0         0
         0         0         0         0         0         0         0         0
         0         0         0         0         0         0         0         0
         0         0         0         0         0         0         0         0
         0         0         0         0         0         0         0         0
         0         0         0         0         0         0         0         0
         0         0         0         0         0         0         0         0
         0         0         0         0         0         0         0         0
         0         0         0         0         0         0         0         0
         0         0         0         0         0         0         0         0
         0         0         0         0         0         0         0         0
         0         0         0         0         0         0         0         0
         0         0         0         0         0         0         0         0
         0         0         0         0         0         0         0         0
         0         0         0         0         0         0         0         0
         0         0         0         0         0         0         0         0
         0         0         0         0         0         0         0         0
         0         0         0         0         0         0         0         0
         0         0         0         0         0         0         0         0
         0         0         0         0         0         0         0         0
         0         0         0         0         0         0         0         0
         0         0         0         0         0         0         0         0
         0         0         0         0         0         0         0         0
         0         0         0         0         0         0         0         0
         0         0         0         0         0         0         0         0
         0         0         0         0         0         0         0         0
         0         0         0         0         0         0         0         0
         0         0         0         0         0         0         0         0
         0         0         0         0         0         0         0         0
         0         0         0         0         0         0         0         0
         0         0         0         0         0         0         0         0
         0         0         0         0         0         0         0         0
         0         0         0         0         0         0         0         0
         0         0         0         0         0         0         0         0
         0         0         0         0         0         0         0         0
         0         0         0         0         0         0         0         0
         0         0         0         0         0         0         0         0
         0         0         0         0         0         0         0         0
         0         0         0         0         0         0         0         0
         0         0         0         0         0         0         0         0
         0         0         0         0         0         0         0         0
         0         0         0         0         0         0         0         0
         0         0         0         0         0         0         0         0
         0         0         0         0         0         0         0         0
         0         0         0         0         0         0         0         0
         0         0         0         0         0         0         0         0
         0         0         0         0         0         0         0         0
         0         0         0         0         0         0         0         0
         0         0         0         0         0         0         0         0
         0         0         0         0         0         0         0         0
         0         0         0         0         0         0         0         0
         0         0         0         0         0         0         0         0
         0         0         0         0         0         0         0         0
         0         0         0         0         0         0         0         0
         0         0         0         0         0         0         0         0
         0         0         0         0         0         0         0         0
         0         0         0         0         0         0         0         0
         0         0         0         0         0         0         0         0
         0         0         0         0         0         0         0         0
         0         0         0         0         0         0         0         0
         0         0         0         0         0         0         0         0
         0         0         0         0         0         0         0         0
         0         0         0         0         0         0         0         0
         0         0         0         0         0         0         0         0
         0         0         0         0         0         0         0         0
         0         0         0         0         0         0         0         0
         0         0         0         0         0         0         0         0
         0         0         0         0         0         0         0         0
         0         0         0         0         0         0         0         0
         0         0         0         0         0         0         0         0
         0         0         0         0         0         0         0         0
         0         0         0         0         0         0         0         0
         0         0         0         0         0         0         0         0
         0         0         0         0         0         0         0         0
         0         0         0         0         0         0         0         0
         0         0         0         0         0         0         0         0
         0         0         0         0         0         0         0         0
         0         0         0         0         0         0         0         0
         0         0         0         0         0         0         0         0
         0         0         0         0         0         0         0         0
         0         0         0         0         0         0         0         0
         0         0         0         0         0         0         0         0
         0         0         0         0         0         0         0         0
         0         0         0         0         0         0         0         0
         0         0         0         0         0         0         0         0
         0         0         0         0         0         0         0         0
         0         0         0         0         0         0         0         0
         0         0         0         0         0         0         0         0
         0         0         0         0         0         0         0         0
         0         0         0         0         0         0         0         0
         0         0         0         0         0         0         0         0
         0         0         0         0         0         0         0         0
         0         0         0         0         0         0         0         0
         0         0         0         0         0         0         0         0
         0         0         0         0         0         0         0         0
         0         0         0         0         0         0         0         0
         0         0         0         0         0         0         0         0
         0         0         0         0         0         0         0         0
         0         0         0         0         0         0         0         0
         0         0         0         0         0         0         0         0
         0         0         0         0         0         0         0         0
         0         0         0         0         0         0         0         0
         0         0         0         0         0         0         0         0
         0         0         0         0         0         0         0         0
         0         0         0         0         0         0         0         0
         0         0         0         0         0         0         0         0
         0         0         0         0         0         0         0         0
         0         0         0         0         0         0         0         0
         0         0         0         0         0         0         0         0
         0         0         0         0         0         0         0         0
         0         0         0         0         0         0         0         0
         0         0         0         0         0         0         0         0
         0         0         0         0         0         0         0         0
         0         0         0         0         0         0         0         0
         0         0         0         0         0         0         0         0
         0         0         0         0         0         0         0         0
         0         0         0         0         0         0         0         0
         0         0         0         0         0         0         0         0
         0         0         0         0         0         0         0         0
         0         0         0         0         0         0         0         0
         0         0         0         0         0         0         0         0
         0         0         0         0         0         0         0         0
         0         0         0         0         0         0         0         0
         0         0         0         0         0         0         0         0
         0         0         0         0         0         0         0         0
         0         0         0         0         0         0         0         0
         0         0         0         0         0         0         0         0
         0         0         0         0         0         0         0         0
         0         0         0         0         0         0         0         0
         0         0         0         0         0         0         0         0
         0         0         0         0         0         0         0         0
         0         0         0         0         0         0         0         0
         0         0         0         0         0         0         0         0
         0         0         0         0         0         0         0         0
         0         0         0         0         0         0         0         0
         0         0         0         0         0         0         0         0
         0         0         0         0         0         0         0         0
         0         0         0         0         0         0         0         0
         0         0         0         0         0         0         0         0
         0         0         0         0         0         0         0         0
         0         0         0         0         0         0         0         0
         0         0         0         0         0         0         0         0
         0         0         0         0         0         0         0         0
         0         0         0         0         0         0         0         0
         0         0         0         0         0         0         0         0
         0         0         0         0         0         0         0         0
         0         0         0         0         0         0         0         0
         0         0         0         0         0         0         0         0
         0         0         0         0         0         0         0         0
         0         0         0         0         0         0         0         0
         0         0         0         0         0         0         0         0
         0         0         0         0         0         0         0         0
         0         0         0         0         0         0         0         0
         0         0         0         0         0         0         0         0
         0         0         0         0         0         0         0         0
         0         0         0         0         0         0         0         0
         0         0         0         0         0         0         0         0
         0         0         0         0         0         0         0         0
         0         0         0         0         0         0         0         0
         0         0         0         0         0         0         0         0
         0         0         0         0         0         0         0         0
         0         0         0         0         0         0         0         0
         0         0         0         0         0         0         0         0
         0         0         0         0         0         0         0         0
         0         0         0         0         0         0         0         0
         0         0         0         0         0         0         0         0
         0         0         0         0         0         0         0         0
         0         0         0         0         0         0         0         0
         0         0         0         0         0         0         0         0
         0         0         0         0         0         0         0         0
         0         0         0         0         0         0         0         0
         0         0         0         0         0         0         0         0
         0         0         0         0         0         0         0         0
         0         0         0         0         0         0         0         0
         0         0         0         0         0         0         0         0
         0         0         0         0         0         0         0         0
         0         0         0         0         0         0         0         0
         0         0         0         0         0         0         0         0
         0         0         0         0         0         0         0         0
         0         0         0         0         0         0         0         0
         0         0         0         0         0         0         0         0
         0         0         0         0         0         0         0         0
         0         0         0         0         0         0         0         0
         0         0         0         0         0         0         0         0
         0         0         0         0         0         0         0         0
         0         0         0         0         0         0         0         0
         0         0         0         0         0         0         0         0
         0         0         0         0         0         0         0         0
         0         0         0         0         0         0         0         0
         0         0         0         0         0         0         0         0
         0         0         0         0         0         0         0         0
         0         0         0         0         0         0         0         0
         0         0         0         0         0         0         0         0
         0         0         0         0         0         0         0         0
         0         0         0         0         0         0         0         0
         0         0         0         0         0         0         0         0
         0         0         0         0         0         0         0         0
         0         0         0         0         0         0         0         0
         0         0         0         0         0         0         0         0
         0         0         0         0         0         0         0         0
         0         0         0         0         0         0         0         0
         0         0         0         0         0         0         0         0
         0         0         0         0         0         0         0         0
         0         0         0         0         0         0         0         0
         0         0         0         0         0         0         0         0
         0         0         0         0         0         0         0         0
         0         0         0         0         0         0         0         0
         0         0         0         0         0         0         0         0
         0         0         0         0         0         0         0         0
         0         0         0         0         0         0         0         0
         0         0         0         0         0         0         0         0
         0         0         0         0         0         0         0         0
         0         0         0         0         0         0         0         0
         0         0         0         0         0         0         0         0
         0         0         0         0         0         0         0         0
         0         0         0         0         0         0         0         0
         0         0         0         0         0         0         0         0
         0         0         0         0         0         0         0         0
         0         0         0         0         0         0         0         0
         0         0         0         0         0         0         0         0
         0         0         0         0         0         0         0         0
         0         0         0         0         0         0         0         0
         0         0         0         0         0         0         0         0
         0         0         0         0         0         0         0         0
         0         0         0         0         0         0         0         0
         0         0         0         0         0         0         0         0
         0         0         0         0         0         0         0         0
         0         0         0         0         0         0         0         0
         0         0         0         0         0         0         0         0
         0         0         0         0         0         0         0         0
         0         0         0         0         0         0         0         0
         0         0         0         0         0         0         0         0
         0         0         0         0         0         0         0         0
         0         0         0         0         0         0         0         0
         0         0         0         0         0         0         0         0
         0         0         0         0         0         0         0         0
         0         0         0         0         0         0         0         0
         0         0         0         0         0         0         0         0
         0         0         0         0         0         0         0         0
         0         0         0         0         0         0         0         0
         0         0         0         0         0         0         0         0
         0         0         0         0         0         0         0         0
         0         0         0         0         0         0         0         0
         0         0         0         0         0         0         0         0
         0         0         0         0         0         0         0         0
         0         0         0         0         0         0         0         0
         0         0         0         0         0         0         0         0
         0         0         0         0         0         0         0         0
         0         0         0         0         0         0         0         0
         0         0         0         0         0         0         0         0
         0         0         0         0         0         0         0         0
         0         0         0         0         0         0         0         0
         0         0         0         0         0         0         0         0
         0         0         0         0         0         0         0         0
         0         0         0         0         0         0         0         0
         0         0         0         0         0         0         0         0
         0         0         0         0         0         0         0         0
         0         0         0         0         0         0         0         0
         0         0         0         0         0         0         0         0
         0         0         0         0         0         0         0         0
         0         0         0         0         0         0         0         0
         0         0         0         0         0         0         0         0
         0         0         0         0         0         0         0         0
         0         0         0         0         0         0         0         0
         0         0         0         0         0         0         0         0
         0         0         0         0         0         0         0         0
         0         0         0         0         0         0         0         0
         0         0         0         0         0         0         0         0
         0         0         0         0         0         0         0         0
         0         0         0         0         0         0         0         0
         0         0         0         0         0         0         0         0
         0         0         0         0         0         0         0         0
         0         0         0         0         0         0         0         0
         0         0         0         0         0         0         0         0
         0         0         0         0         0         0         0         0
         0         0         0         0         0         0         0         0
         0         0         0         0         0         0         0         0
         0         0         0         0         0         0         0         0
         0         0         0         0         0         0         0         0
         0         0         0         0         0         0         0         0
         0         0         0         0         0         0         0         0
         0         0         0         0         0         0         0         0
         0         0         0         0         0         0         0         0
         0         0         0         0         0         0         0         0
         0         0         0         0         0         0         0         0
         0         0         0         0         0         0         0         0
         0         0         0         0         0         0         0         0
         0         0         0         0         0         0         0         0
         0         0         0         0         0         0         0         0
         0         0         0         0         0         0         0         0
         0         0         0         0         0         0         0         0
         0         0         0         0         0         0         0         0
         0         0         0         0         0         0         0         0
         0         0         0         0         0         0         0         0
         0         0         0         0         0         0         0         0
         0         0         0         0         0         0         0         0
         0         0         0         0         0         0         0         0
         0         0         0         0         0         0         0         0
         0         0         0         0         0         0         0         0
         0         0         0         0         0         0         0         0
         0         0         0         0         0         0         0         0
         0         0         0         0         0         0         0         0
         0         0         0         0         0         0         0         0
         0         0         0         0         0         0         0         0
         0         0         0         0         0         0         0         0
         0         0         0         0         0         0         0         0
         0         0         0         0         0         0         0         0
         0         0         0         0         0         0         0         0
         0         0         0         0         0         0         0         0
         0         0         0         0         0         0         0         0
         0         0         0         0         0         0         0         0
         0         0         0         0         0         0         0         0
         0         0         0         0         0         0         0         0
         0         0         0         0         0         0         0         0
         0         0         0         0         0         0         0         0
         0         0         0         0         0         0         0         0
         0         0         0         0         0         0         0         0
         0         0         0         0         0         0         0         0
         0         0         0         0         0         0         0         0
         0         0         0         0         0         0         0         0
         0         0         0         0         0         0         0         0
         0         0         0         0         0         0         0         0
         0         0         0         0         0         0         0         0
         0         0         0         0         0         0         0         0
         0         0         0         0         0         0         0         0
         0         0         0         0         0         0         0         0
         0         0         0         0         0         0         0         0
         0         0         0         0         0         0         0         0
         0         0         0         0         0         0         0         0
         0         0         0         0         0         0         0         0
         0         0         0         0         0         0         0         0
         0         0         0         0         0         0         0         0
         0         0         0         0         0         0         0         0
         0         0         0         0         0         0         0         0
         0         0         0         0         0         0         0         0
         0         0         0         0         0         0         0         0
         0         0         0         0         0         0         0         0
         0         0         0         0         0         0         0         0
         0         0         0         0         0         0         0         0
         0         0         0         0         0         0         0         0
         0         0         0         0         0         0         0         0
         0         0         0         0         0         0         0         0
         0         0         0         0         0         0         0         0
         0         0         0         0         0         0         0         0
         0         0         0         0         0         0         0         0
         0         0         0         0         0         0         0         0
         0         0         0         0         0         0         0         0
         0         0         0         0         0         0         0         0
         0         0         0         0         0         0         0         0
         0         0         0         0         0         0         0         0
         0         0         0         0         0         0         0         0
         0         0         0         0         0         0         0         0
         0         0         0         0         0         0         0         0
         0         0         0         0         0         0         0         0
         0         0         0         0         0         0         0         0
         0         0         0         0         0         0         0         0
         0         0         0         0         0         0         0         0
         0         0         0         0         0         0         0         0
         0         0         0         0         0         0         0         0
         0         0         0         0         0         0         0         0
         0         0         0         0         0         0         0         0
         0         0         0         0         0         0         0         0
         0         0         0         0         0         0         0         0
         0         0         0         0         0         0         0         0
         0         0         0         0         0         0         0         0
         0         0         0         0         0         0         0         0
         0         0         0         0         0         0         0         0
         0         0         0         0         0         0         0         0
         0         0         0         0         0         0         0         0
         0         0         0         0         0         0         0         0
         0         0         0         0         0         0         0         0
         0         0         0         0         0         0         0         0
         0         0         0         0         0         0         0         0
         0         0         0         0         0         0         0         0
         0         0         0         0         0         0         0         0
         0         0         0         0         0         0         0         0
         0         0         0         0         0         0         0         0
         0         0         0         0         0         0         0         0
         0         0         0         0         0         0         0         0
         0         0         0         0         0         0         0         0
         0         0         0         0         0         0         0         0
         0         0         0         0         0         0         0         0
         0         0         0         0         0         0         0         0
         0         0         0         0         0         0         0         0
         0         0         0         0         0         0         0         0
         0         0         0         0         0         0         0         0
         0         0         0         0         0         0         0         0
         0         0         0         0         0         0         0         0
         0         0         0         0         0         0         0         0
         0         0         0         0         0         0         0         0
         0         0         0         0         0         0         0         0
         0         0         0         0         0         0         0         0
         0         0         0         0         0         0         0         0
         0         0         0         0         0         0         0         0
         0         0         0         0         0         0         0         0
         0         0         0         0         0         0         0         0
         0         0         0         0         0         0         0         0
         0         0         0         0         0         0         0         0
         0         0         0         0         0         0         0         0
         0         0         0         0         0         0         0         0
         0         0         0         0         0         0         0         0
         0         0         0         0         0         0         0         0
         0         0         0         0         0         0         0         0
         0         0         0         0         0         0         0         0
         0         0         0         0         0         0         0         0
         0         0         0         0         0         0         0         0
         0         0         0         0         0         0         0         0
         0         0         0         0         0         0         0         0
         0         0         0         0         0         0         0         0
         0         0         0         0         0         0         0         0
         0         0         0         0         0         0         0         0
         0         0         0         0         0         0         0         0
         0         0         0         0         0         0         0         0
         0         0         0         0         0         0         0         0
         0         0         0         0         0         0         0         0
         0         0         0         0         0         0         0         0
         0         0         0         0         0         0         0         0
         0         0         0         0         0         0         0         0
         0         0         0         0         0         0         0         0
         0         0         0         0         0         0         0         0
         0         0         0         0         0         0         0         0
         0         0         0         0         0         0         0         0
         0         0         0         0         0         0         0         0
         0         0         0         0         0         0         0         0
         0         0         0         0         0         0         0         0
         0         0         0         0         0         0         0         0
         0         0         0         0         0         0         0         0
         0         0         0         0         0         0         0         0
         0         0         0         0         0         0         0         0
         0         0         0         0         0         0         0         0
         0         0         0         0         0         0         0         0
         0         0         0         0         0         0         0         0
         0         0         0         0         0         0         0         0
         0         0         0         0         0         0         0         0
         0         0         0         0         0         0         0         0
         0         0         0         0         0         0         0         0
         0         0         0         0         0         0         0         0
         0         0         0         0         0         0         0         0
         0         0         0         0         0         0         0         0
         0         0         0         0         0         0         0         0
         0         0         0         0         0         0         0         0
         0         0         0         0         0         0         0         0
         0         0         0         0         0         0         0         0
         0         0         0         0         0         0         0         0
         0         0         0         0         0         0         0         0
         0         0         0         0         0         0         0         0
         0         0         0         0         0         0         0         0
         0         0         0         0         0         0         0         0
         0         0         0         0         0         0         0         0
         0         0         0         0         0         0         0         0
         0         0         0         0         0         0         0         0
         0         0         0         0         0         0         0         0
         0         0         0         0         0         0         0         0
         0         0         0         0         0         0         0         0
         0         0         0         0         0         0         0         0
         0         0         0         0         0         0         0         0
         0         0         0         0         0         0         0         0
         0         0         0         0         0         0         0         0
         0         0         0         0         0         0         0         0
         0         0         0         0         0         0         0         0
         0         0         0         0         0         0         0         0
         0         0         0         0         0         0         0         0
         0         0         0         0         0         0         0         0
         0         0         0         0         0         0         0         0
         0         0         0         0         0         0         0         0
         0         0         0         0         0         0         0         0
         0         0         0         0         0         0         0         0
         0         0         0         0         0         0         0         0
         0         0         0         0         0         0         0         0
         0         0         0         0         0         0         0         0
         0         0         0         0         0         0         0         0
         0         0         0         0         0         0         0         0
         0         0         0         0         0         0         0         0
         0         0         0         0         0         0         0         0
         0         0         0         0         0         0         0         0
         0         0         0         0         0         0         0         0
         0         0         0         0         0         0         0         0
         0         0         0         0         0         0         0         0
         0         0         0         0         0         0         0         0
         0         0         0         0         0         0         0         0
         0         0         0         0         0         0         0         0
         0         0         0         0         0         0         0         0
         0         0         0         0         0         0         0         0
         0         0         0         0         0         0         0         0
         0         0         0         0         0         0         0         0
         0         0         0         0         0         0         0         0
         0         0         0         0         0         0         0         0
         0         0         0         0         0         0         0         0
         0         0         0         0         0         0         0         0
         0         0         0         0         0         0         0         0
         0         0         0         0         0         0         0         0
         0         0         0         0         0         0         0         0
         0         0         0         0         0         0         0         0
         0         0         0         0         0         0         0         0
         0         0         0         0         0         0         0         0
         0         0         0         0         0         0         0         0
         0         0         0         0         0         0         0         0
         0         0         0         0         0         0         0         0
         0         0         0         0         0         0         0         0
         0         0         0         0         0         0         0         0
         0         0         0         0         0         0         0         0
         0         0         0         0         0         0         0         0
         0         0         0         0         0         0         0         0
         0         0         0         0         0         0         0         0
         0         0         0         0         0         0         0         0
         0         0         0         0         0         0         0         0
         0         0         0         0         0         0         0         0
         0         0         0         0         0         0         0         0
         0         0         0         0         0         0         0         0
         0         0         0         0         0         0         0         0
         0         0         0         0         0         0         0         0
         0         0         0         0         0         0         0         0
         0         0         0         0         0         0         0         0
         0         0         0         0         0         0         0         0
         0         0         0         0         0         0         0         0
         0         0         0         0         0         0         0         0
         0         0         0         0         0         0         0         0
         0         0         0         0         0         0         0         0
         0         0         0         0         0         0         0         0
         0         0         0         0         0         0         0         0
         0         0         0         0         0         0         0         0
         0         0         0         0         0         0         0         0
         0         0         0         0         0         0         0         0
         0         0         0         0         0         0         0         0
         0         0         0         0         0         0         0         0
         0         0         0         0         0         0         0         0
         0         0         0         0         0         0         0         0
         0         0         0         0         0         0         0         0
         0         0         0         0         0         0         0         0
         0         0         0         0         0         0         0         0
         0         0         0         0         0         0         0         0
         0         0         0         0         0         0         0         0
         0         0         0         0         0         0         0         0
         0         0         0         0         0         0         0         0
         0         0         0         0         0         0         0         0
         0         0         0         0         0         0         0         0
         0         0         0         0         0         0         0         0
         0         0         0         0         0         0         0         0
         0         0         0         0         0         0         0         0
         0         0         0         0         0         0         0         0
         0         0         0         0         0         0         0         0
         0         0         0         0         0         0         0         0
         0         0         0         0         0         0         0         0
         0         0         0         0         0         0         0         0
         0         0         0         0         0         0         0         0
         0         0         0         0         0         0         0         0
         0         0         0         0         0         0         0         0
         0         0         0         0         0         0         0         0
         0         0         0         0         0         0         0         0
         0         0         0         0         0         0         0         0
         0         0         0         0         0         0         0         0
         0         0         0         0         0         0         0         0
         0         0         0         0         0         0         0         0
         0         0         0         0         0         0         0         0
         0         0         0         0         0         0         0         0
         0         0         0         0         0         0         0         0
         0         0         0         0         0         0         0         0
         0         0         0         0         0         0         0         0
         0         0         0         0         0         0         0         0
         0         0         0         0         0         0         0         0
         0         0         0         0         0         0         0         0
         0         0         0         0         0         0         0         0
         0         0         0         0         0         0         0         0
         0         0         0         0         0         0         0         0
         0         0         0         0         0         0         0         0
         0         0         0         0         0         0         0         0
         0         0         0         0         0         0         0         0
         0         0         0         0         0         0         0         0
         0         0         0         0         0         0         0         0
         0         0         0         0         0         0         0         0
         0         0         0         0         0         0         0         0
         0         0         0         0         0         0         0         0
         0         0         0         0         0         0         0         0
         0         0         0         0         0         0         0         0
         0         0         0         0         0         0         0         0
         0         0         0         0         0         0         0         0
         0         0         0         0         0         0         0         0
         0         0         0         0         0         0         0         0
         0         0         0         0         0         0         0         0
         0         0         0         0         0         0         0         0
         0         0         0         0         0         0         0         0
         0         0         0         0         0         0         0         0
         0         0         0         0         0         0         0         0
         0         0         0         0         0         0         0         0
         0         0         0         0         0         0         0         0
         0         0         0         0         0         0         0         0
         0         0         0         0         0         0         0         0
         0         0         0         0         0         0         0         0
         0         0         0         0         0         0         0         0
         0         0         0         0         0         0         0         0
         0         0         0         0         0         0         0         0
         0         0         0         0         0         0         0         0
         0         0         0         0         0         0         0         0
         0         0         0         0         0         0         0         0
         0         0         0         0         0         0         0         0
         0         0         0         0         0         0         0         0
         0         0         0         0         0         0         0         0
         0         0         0         0         0         0         0         0
         0         0         0         0         0         0         0         0
         0         0         0         0         0         0         0         0
         0         0         0         0         0         0         0         0
         0         0         0         0         0         0         0         0
         0         0         0         0         0         0         0         0
         0         0         0         0         0         0         0         0
         0         0         0         0         0         0         0         0
         0         0         0         0         0         0         0         0
         0         0         0         0         0         0         0         0
         0         0         0         0         0         0         0         0
         0         0         0         0         0         0         0         0
         0         0         0         0         0         0         0         0
         0         0         0         0         0         0         0         0
         0         0         0         0         0         0         0         0
         0         0         0         0         0         0         0         0
         0         0         0         0         0         0         0         0
         0         0         0         0         0         0         0         0
         0         0         0         0         0         0         0         0
         0         0         0         0         0         0         0         0
         0         0         0         0         0         0         0         0
         0         0         0         0         0         0         0         0
         0         0         0         0         0         0         0         0
         0         0         0         0         0         0         0         0
         0         0         0         0         0         0         0         0
         0         0         0         0         0         0         0         0
         0         0         0         0         0         0         0         0
         0         0         0         0         0         0         0         0
         0         0         0         0         0         0         0         0
         0         0         0         0         0         0         0         0
         0         0         0         0         0         0         0         0
         0         0         0         0         0         0         0         0
         0         0         0         0         0         0         0         0
         0         0         0         0         0         0         0         0
         0         0         0         0         0         0         0         0
         0         0         0         0         0         0         0         0
         0         0         0         0         0         0         0         0
         0         0         0         0         0         0         0         0
         0         0         0         0         0         0         0         0
         0         0         0         0         0         0         0         0
         0         0         0         0         0         0         0         0
         0         0         0         0         0         0         0         0
         0         0         0         0         0         0         0         0
         0         0         0         0         0         0         0         0
         0         0         0         0         0         0         0         0
         0         0         0         0         0         0         0         0
         0         0         0         0         0         0         0         0
         0         0         0         0         0         0         0         0
         0         0         0         0         0         0         0         0
         0         0         0         0         0         0         0         0
         0         0         0         0         0         0         0         0
         0         0         0         0         0         0         0         0
         0         0         0         0         0         0         0         0
         0         0         0         0         0         0         0         0
         0         0         0         0         0         0         0         0
         0         0         0         0         0         0         0         0
         0         0         0         0         0         0         0         0
         0         0         0         0         0         0         0         0
         0         0         0         0         0         0         0         0
         0         0         0         0         0         0         0         0
         0         0         0         0         0         0         0         0
         0         0         0         0         0         0         0         0
         0         0         0         0         0         0         0         0
         0         0         0         0         0         0         0         0
         0         0         0         0         0         0         0         0
         0         0         0         0         0         0         0         0
         0         0         0         0         0         0         0         0
         0         0         0         0         0         0         0         0
         0         0         0         0         0         0         0         0
         0         0         0         0         0         0         0         0
         0         0         0         0         0         0         0         0
         0         0         0         0         0         0         0         0
         0         0         0         0         0         0         0         0
         0         0         0         0         0         0         0         0
         0         0         0         0         0         0         0         0
         0         0         0         0         0         0         0         0
         0         0         0         0         0         0         0         0
         0         0         0         0         0         0         0         0
         0         0         0         0         0         0         0         0
         0         0         0         0         0         0         0         0
         0         0         0         0         0         0         0         0
         0         0         0         0         0         0         0         0
         0         0         0         0         0         0         0         0
         0         0         0         0         0         0         0         0
         0         0         0         0         0         0         0         0
         0         0         0         0         0         0         0         0
         0         0         0         0         0         0         0         0
         0         0         0         0         0         0         0         0
         0         0         0         0         0         0         0         0
         0         0         0         0         0         0         0         0
         0         0         0         0         0         0         0         0
         0         0         0         0         0         0         0         0
         0         0         0         0         0         0         0         0
         0         0         0         0         0         0         0         0
         0         0         0         0         0         0         0         0
         0         0         0         0         0         0         0         0
         0         0         0         0         0         0         0         0
         0         0         0         0         0         0         0         0
         0         0         0         0         0         0         0         0
         0         0         0         0         0         0         0         0
         0         0         0         0         0         0         0         0
         0         0         0         0         0         0         0         0
         0         0         0         0         0         0         0         0
         0         0         0         0         0         0         0         0
         0         0         0         0         0         0         0         0
         0         0         0         0         0         0         0         0
         0         0         0         0         0         0         0         0
         0         0         0         0         0         0         0         0
         0         0         0         0         0         0         0         0
         0         0         0         0         0         0         0         0
         0         0         0         0         0         0         0         0
         0         0         0         0         0         0         0         0
         0         0         0         0         0         0         0         0
         0         0         0         0         0         0         0         0
         0         0         0         0         0         0         0         0
         0         0         0         0         0         0         0         0
         0         0         0         0         0         0         0         0
         0         0         0         0         0         0         0         0
         0         0         0         0         0         0         0         0
         0         0         0         0         0         0         0         0
         0         0         0         0         0         0         0         0
         0         0         0         0         0         0         0         0
         0         0         0         0         0         0         0         0
         0         0         0         0         0         0         0         0
         0         0         0         0         0         0         0         0
         0         0         0         0         0         0         0         0
         0         0         0         0         0         0         0         0
         0         0         0         0         0         0         0         0
         0         0         0         0         0         0         0         0
         0         0         0         0         0         0         0         0
         0         0         0         0         0         0         0         0
         0         0         0         0         0         0         0         0
         0         0         0         0         0         0         0         0
         0         0         0         0         0         0         0         0
         0         0         0         0         0         0         0         0
         0         0         0         0         0         0         0         0
         0         0         0         0         0         0         0         0
         0         0         0         0         0         0         0         0
         0         0         0         0         0         0         0         0
         0         0         0         0         0         0         0         0
         0         0         0         0         0         0         0         0
         0         0         0         0         0         0         0         0
         0         0         0         0         0         0         0         0
         0         0         0         0         0         0         0         0
         0         0         0         0         0         0         0         0
         0         0         0         0         0         0         0         0
         0         0         0         0         0         0         0         0
         0         0         0         0         0         0         0         0
         0         0         0         0         0         0         0         0
         0         0         0         0         0         0         0         0
         0         0         0         0         0         0         0         0
         0         0         0         0         0         0         0         0
         0         0         0         0         0         0         0         0
         0         0         0         0         0         0         0         0
         0         0         0         0         0         0         0         0
         0         0         0         0         0         0         0         0
         0         0         0         0         0         0         0         0
         0         0         0         0         0         0         0         0
         0         0         0         0         0         0         0         0
         0         0         0         0         0         0         0         0
         0         0         0         0         0         0         0         0
         0         0         0         0         0         0         0         0
         0         0         0         0         0         0         0         0
         0         0         0         0         0         0         0         0
         0         0         0         0         0         0         0         0
         0         0         0         0         0         0         0         0
         0         0         0         0         0         0         0         0
         0         0         0         0         0         0         0         0
         0         0         0         0         0         0         0         0
         0         0         0         0         0         0         0         0
         0         0         0         0         0         0         0         0
         0         0         0         0         0         0         0         0
         0         0         0         0         0         0         0         0
         0         0         0         0         0         0         0         0
         0         0         0         0         0         0         0         0
         0         0         0         0         0         0         0         0
         0         0         0         0         0         0         0         0
         0         0         0         0         0         0         0         0
         0         0         0         0         0         0         0         0
         0         0         0         0         0         0         0         0
         0         0         0         0         0         0         0         0
         0         0         0         0         0         0         0         0
         0         0         0         0         0         0         0         0
         0         0         0         0         0         0         0         0
         0         0         0         0         0         0         0         0
         0         0         0         0         0         0         0         0
         0         0         0         0         0         0         0         0
         0         0         0         0         0         0         0         0
         0         0         0         0         0         0         0         0
         0         0         0         0         0         0         0         0
         0         0         0         0         0         0         0         0
         0         0         0         0         0         0         0         0
         0         0         0         0         0         0         0         0
         0         0         0         0         0         0         0         0
         0         0         0         0         0         0         0         0
         0         0         0         0         0         0         0         0
         0         0         0         0         0         0         0         0
         0         0         0         0         0         0         0         0
         0         0         0         0         0         0         0         0
         0         0         0         0         0         0         0         0
         0         0         0         0         0         0         0         0
         0         0         0         0         0         0         0         0
         0         0         0         0         0         0         0         0
         0         0         0         0         0         0         0         0
         0         0         0         0         0         0         0         0
         0         0         0         0         0         0         0         0
         0         0         0         0         0         0         0         0
         0         0         0         0         0         0         0         0
         0         0         0         0         0         0         0         0
         0         0         0         0         0         0         0         0
         0         0         0         0         0         0         0         0
         0         0         0         0         0         0         0         0
         0         0         0         0         0         0         0         0
         0         0         0         0         0         0         0         0
         0         0         0         0         0         0         0         0
         0         0         0         0         0         0         0         0
         0         0         0         0         0         0         0         0
         0         0         0         0         0         0         0         0
         0         0         0         0         0         0         0         0
         0         0         0         0         0         0         0         0
         0         0         0         0         0         0         0         0
         0         0         0         0         0         0         0         0
         0         0         0         0         0         0         0         0
         0         0         0         0         0         0         0         0
         0         0         0         0         0         0         0         0
         0         0         0         0         0         0         0         0
         0         0         0         0         0         0         0         0
         0         0         0         0         0         0         0         0
         0         0         0         0         0         0         0         0
         0         0         0         0         0         0         0         0
         0         0         0         0         0         0         0         0
         0         0         0         0         0         0         0         0
         0         0         0         0         0         0         0         0
         0         0         0         0         0         0         0         0
         0         0         0         0         0         0         0         0
         0         0         0         0         0         0         0         0
         0         0         0         0         0         0         0         0
         0         0         0         0         0         0         0         0
         0         0         0         0         0         0         0         0
         0         0         0         0         0         0         0         0
         0         0         0         0         0         0         0         0
         0         0         0         0         0         0         0         0
         0         0         0         0         0         0         0         0
         0         0         0         0         0         0         0         0
         0         0         0         0         0         0         0         0
         0         0         0         0         0         0         0         0
         0         0         0         0         0         0         0         0
         0         0         0         0         0         0         0         0
         0         0         0         0         0         0         0         0
         0         0         0         0         0         0         0         0
         0         0         0         0         0         0         0         0
         0         0         0         0         0         0         0         0
         0         0         0         0         0         0         0         0
         0         0         0         0         0         0         0         0
         0         0         0         0         0         0         0         0
         0         0         0         0         0         0         0         0
         0         0         0         0         0         0         0         0
         0         0         0         0         0         0         0         0
         0         0         0         0         0         0         0         0
         0         0         0         0         0         0         0         0
         0         0         0         0         0         0         0         0
         0         0         0         0         0         0         0         0
         0         0         0         0         0         0         0         0
         0         0         0         0         0         0         0         0
         0         0         0         0         0         0         0         0
         0         0         0         0         0         0         0         0
         0         0         0         0         0         0         0         0
         0         0         0         0         0         0         0         0
         0         0         0         0         0         0         0         0
         0         0         0         0         0         0         0         0
         0         0         0         0         0         0         0         0
         0         0         0         0         0         0         0         0
         0         0         0         0         0         0         0         0
         0         0         0         0         0         0         0         0
         0         0         0         0         0         0         0         0
         0         0         0         0         0         0         0         0
         0         0         0         0         0         0         0         0
         0         0         0         0         0         0         0         0
         0         0         0         0         0         0         0         0
         0         0         0         0         0         0         0         0
         0         0         0         0         0         0         0         0
         0         0         0         0         0         0         0         0
         0         0         0         0         0         0         0         0
         0         0         0         0         0         0         0         0
         0         0         0         0         0         0         0         0
         0         0         0         0         0         0         0         0
         0         0         0         0         0         0         0         0
         0         0         0         0         0         0         0         0
         0         0         0         0         0         0         0         0
         0         0         0         0         0         0         0         0
         0         0         0         0         0         0         0         0
         0         0         0         0         0         0         0         0
         0         0         0         0         0         0         0         0
         0         0         0         0         0         0         0         0
         0         0         0         0         0         0         0         0
         0         0         0         0         0         0         0         0
         0         0         0         0         0         0         0         0
         0         0         0         0         0         0         0         0
         0         0         0         0         0         0         0         0
         0         0         0         0         0         0         0         0
         0         0         0         0         0         0         0         0
         0         0         0         0         0         0         0         0
         0         0         0         0         0         0         0         0
         0         0         0         0         0         0         0         0
         0         0         0         0         0         0         0         0
         0         0         0         0         0         0         0         0
         0         0         0         0         0         0         0         0
         0         0         0         0         0         0         0         0
         0         0         0         0         0         0         0         0
         0         0         0         0         0         0         0         0
         0         0         0         0         0         0         0         0
         0         0         0         0         0         0         0         0
         0         0         0         0         0         0         0         0
         0         0         0         0         0         0         0         0
         0         0         0         0         0         0         0         0
         0         0         0         0         0         0         0         0
         0         0         0         0         0         0         0         0
         0         0         0         0         0         0         0         0
         0         0         0         0         0         0         0         0
         0         0         0         0         0         0         0         0
         0         0         0         0         0         0         0         0
         0         0         0         0         0         0         0         0
         0         0         0         0         0         0         0         0
         0         0         0         0         0         0         0         0
         0         0         0         0         0         0         0         0
         0         0         0         0         0         0         0         0
         0         0         0         0         0         0         0         0
         0         0         0         0         0         0         0         0
         0         0         0         0         0         0         0         0
         0         0         0         0         0         0         0         0
         0         0         0         0         0         0         0         0
         0         0         0         0         0         0         0         0
         0         0         0         0         0         0         0         0
         0         0         0         0         0         0         0         0
         0         0         0         0         0         0         0         0
         0         0         0         0         0         0         0         0
         0         0         0         0         0         0         0         0
         0         0         0         0         0         0         0         0
         0         0         0         0         0         0         0         0
         0         0         0         0         0         0         0         0
         0         0         0         0         0         0         0         0
         0         0         0         0         0         0         0         0
         0         0         0         0         0         0         0         0
         0         0         0         0         0         0         0         0
         0         0         0         0         0         0         0         0
         0         0         0         0         0         0         0         0
         0         0         0         0         0         0         0         0
         0         0         0         0         0         0         0         0
         0         0         0         0         0         0         0         0
         0         0         0         0         0         0         0         0
         0         0         0         0         0         0         0         0
         0         0         0         0         0         0         0         0
         0         0         0         0         0         0         0         0
         0         0         0         0         0         0         0         0
         0         0         0         0         0         0         0         0
         0         0         0         0         0         0         0         0
         0         0         0         0         0         0         0         0
         0         0         0         0         0         0         0         0
         0         0         0         0         0         0         0         0
         0         0         0         0         0         0         0         0
         0         0         0         0         0         0         0         0
         0         0         0         0         0         0         0         0
         0         0         0         0         0         0         0         0
         0         0         0         0         0         0         0         0
         0         0         0         0         0         0         0         0
         0         0         0         0         0         0         0         0
         0         0         0         0         0         0         0         0
         0         0         0         0         0         0         0         0
         0         0         0         0         0         0         0         0
         0         0         0         0         0         0         0         0
         0         0         0         0         0         0         0         0
         0         0         0         0         0         0         0         0
         0         0         0         0         0         0         0         0
         0         0         0         0         0         0         0         0
         0         0         0         0         0         0         0         0
         0         0         0         0         0         0         0         0
         0         0         0         0         0         0         0         0
         0         0         0         0         0         0         0         0
         0         0         0         0         0         0         0         0
         0         0         0         0         0         0         0         0
         0         0         0         0         0         0         0         0
         0         0         0         0         0         0         0         0
         0         0         0         0         0         0         0         0
         0         0         0         0         0         0         0         0
         0         0         0         0         0         0         0         0
         0         0         0         0         0         0         0         0
         0         0         0         0         0         0         0         0
         0         0         0         0         0         0         0         0
         0         0         0         0         0         0         0         0
         0         0         0         0         0         0         0         0
         0         0         0         0         0         0         0         0
         0         0         0         0         0         0         0         0
         0         0         0         0         0         0         0         0
         0         0         0         0         0         0         0         0
         0         0         0         0         0         0         0         0
         0         0         0         0         0         0         0         0
         0         0         0         0         0         0         0         0
         0         0         0         0         0         0         0         0
         0         0         0         0         0         0         0         0
         0         0         0         0         0         0         0         0
         0         0         0         0         0         0         0         0
         0         0         0         0         0         0         0         0
         0         0         0         0         0         0         0         0
         0         0         0         0         0         0         0         0
         0         0         0         0         0         0         0         0
         0         0         0         0         0         0         0         0
         0         0         0         0         0         0         0         0
         0         0         0         0         0         0         0         0
         0         0         0         0         0         0         0         0
         0         0         0         0         0         0         0         0
         0         0         0         0         0         0         0         0
         0         0         0         0         0         0         0         0
         0         0         0         0         0         0         0         0
         0         0         0         0         0         0         0         0
         0         0         0         0         0         0         0         0
         0         0         0         0         0         0         0         0
         0         0         0         0         0         0         0         0
         0         0         0         0         0         0         0         0
         0         0         0         0         0         0         0         0
         0         0         0         0         0         0         0         0
         0         0         0         0         0         0         0         0
         0         0         0         0         0         0         0         0
         0         0         0         0         0         0         0         0
         0         0         0         0         0         0         0         0
         0         0         0         0         0         0         0         0
         0         0         0         0         0         0         0         0
         0         0         0         0         0         0         0         0
         0         0         0         0         0         0         0         0
         0         0         0         0         0         0         0         0
         0         0         0         0         0         0         0         0
         0         0         0         0         0         0         0         0
         0         0         0         0         0         0         0         0
         0         0         0         0         0         0         0         0
         0         0         0         0         0         0         0         0
         0         0         0         0         0         0         0         0
         0         0         0         0         0         0         0         0
         0         0         0         0         0         0         0         0
         0         0         0         0         0         0         0         0
         0         0         0         0         0         0         0         0
         0         0         0         0         0         0         0         0
         0         0         0         0         0         0         0         0
         0         0         0         0         0         0         0         0
         0         0         0         0         0         0         0         0
         0         0         0         0         0         0         0         0
         0         0         0         0         0         0         0         0
         0         0         0         0         0         0         0         0
         0         0         0         0         0         0         0         0
         0         0         0         0         0         0         0         0
         0         0         0         0         0         0         0         0
         0         0         0         0         0         0         0         0
         0         0         0         0         0         0         0         0
         0         0         0         0         0         0         0         0
         0         0         0         0         0         0         0         0
         0         0         0         0         0         0         0         0
         0         0         0         0         0         0         0         0
         0         0         0         0         0         0         0         0
         0         0         0         0         0         0         0         0
         0         0         0         0         0         0         0         0
         0         0         0         0         0         0         0         0
         0         0         0         0         0         0         0         0
         0         0         0         0         0         0         0         0
         0         0         0         0         0         0         0         0
         0         0         0         0         0         0         0         0
         0         0         0         0         0         0         0         0
         0         0         0         0         0         0         0         0
         0         0         0         0         0         0         0         0
         0         0         0         0         0         0         0         0
         0         0         0         0         0         0         0         0
         0         0         0         0         0         0         0         0
         0         0         0         0         0         0         0         0
         0         0         0         0         0         0         0         0
         0         0         0         0         0         0         0         0
         0         0         0         0         0         0         0         0
         0         0         0         0         0         0         0         0
         0         0         0         0         0         0         0         0
         0         0         0         0         0         0         0         0
         0         0         0         0         0         0         0         0
         0         0         0         0         0         0         0         0
         0         0         0         0         0         0         0         0
         0         0         0         0         0         0         0         0
         0         0         0         0         0         0         0         0
         0         0         0         0         0         0         0         0
         0         0         0         0         0         0         0         0
         0         0         0         0         0         0         0         0
         0         0         0         0         0         0         0         0
         0         0         0         0         0         0         0         0
         0         0         0         0         0         0         0         0
         0         0         0         0         0         0         0         0
         0         0         0         0         0         0         0         0
         0         0         0         0         0         0         0         0
         0         0         0         0         0         0         0         0
         0         0         0         0         0         0         0         0
         0         0         0         0         0         0         0         0
         0         0         0         0         0         0         0         0
         0         0         0         0         0         0         0         0
         0         0         0         0         0         0         0         0
         0         0         0         0         0         0         0         0
         0         0         0         0         0         0         0         0
         0         0         0         0         0         0         0         0
         0         0         0         0         0         0         0         0
         0         0         0         0         0         0         0         0
         0         0         0         0         0         0         0         0
         0         0         0         0         0         0         0         0
         0         0         0         0         0         0         0         0
         0         0         0         0         0         0         0         0
         0         0         0         0         0         0         0         0
         0         0         0         0         0         0         0         0
         0         0         0         0         0         0         0         0
         0         0         0         0         0         0         0         0
         0         0         0         0         0         0         0         0
         0         0         0         0         0         0         0         0
         0         0         0         0         0         0         0         0
         0         0         0         0         0         0         0         0
         0         0         0         0         0         0         0         0
         0         0         0         0         0         0         0         0
         0         0         0         0         0         0         0         0
         0         0         0         0         0         0         0         0
         0         0         0         0         0         0         0         0
         0         0         0         0         0         0         0         0
         0         0         0         0         0         0         0         0
         0         0         0         0         0         0         0         0
         0         0         0         0         0         0         0         0
         0         0         0         0         0         0         0         0
         0         0         0         0         0         0         0         0
         0         0         0         0         0         0         0         0
         0         0         0         0         0         0         0         0
         0         0         0         0         0         0         0         0
         0         0         0         0         0         0         0         0
         0         0         0         0         0         0         0         0
         0         0         0         0         0         0         0         0
         0         0         0         0         0         0         0         0
         0         0         0         0         0         0         0         0
         0         0         0         0         0         0         0         0
         0         0         0         0         0         0         0         0
         0         0         0         0         0         0         0         0
         0         0         0         0         0         0         0         0
         0         0         0         0         0         0         0         0
         0         0         0         0         0         0         0         0
         0         0         0         0         0         0         0         0
         0         0         0         0         0         0         0         0
         0         0         0         0         0         0         0         0
         0         0         0         0         0         0         0         0
         0         0         0         0         0         0         0         0
         0         0         0         0         0         0         0         0
         0         0         0         0         0         0         0         0
         0         0         0         0         0         0         0         0
         0         0         0         0         0         0         0         0
         0         0         0         0         0         0         0         0
         0         0         0         0         0         0         0         0
         0         0         0         0         0         0         0         0
         0         0         0         0         0         0         0         0
         0         0         0         0         0         0         0         0
         0         0         0         0         0         0         0         0
         0         0         0         0         0         0         0         0
         0         0         0         0         0         0         0         0
         0         0         0         0         0         0         0         0
         0         0         0         0         0         0         0         0
         0         0         0         0         0         0         0         0
         0         0         0         0         0         0         0         0
         0         0         0         0         0         0         0         0
         0         0         0         0         0         0         0         0
         0         0         0         0         0         0         0         0
         0         0         0         0         0         0         0         0
         0         0         0         0         0         0         0         0
         0         0         0         0         0         0         0         0
         0         0         0         0         0         0         0         0
         0         0         0         0         0         0         0         0
         0         0         0         0         0         0         0         0
         0         0         0         0         0         0         0         0
         0         0         0         0         0         0         0         0
         0         0         0         0         0         0         0         0
         0         0         0         0         0         0         0         0
         0         0         0         0         0         0         0         0
         0         0         0         0         0         0         0         0
         0         0         0         0         0         0         0         0
         0         0         0         0         0         0         0         0
         0         0         0         0         0         0         0         0
         0         0         0         0         0         0         0         0
         0         0         0         0         0         0         0         0
         0         0         0         0         0         0         0         0
         0         0         0         0         0         0         0         0
         0         0         0         0         0         0         0         0
         0         0         0         0         0         0         0         0
         0         0         0         0         0         0         0         0
         0         0         0         0         0         0         0         0
         0         0         0         0         0         0         0         0
         0         0         0         0         0         0         0         0
         0         0         0         0         0         0         0         0
         0         0         0         0         0         0         0         0
         0         0         0         0         0         0         0         0
         0         0         0         0         0         0         0         0
         0         0         0         0         0         0         0         0
         0         0         0         0         0         0         0         0
         0         0         0         0         0         0         0         0
         0         0         0         0         0         0         0         0
         0         0         0         0         0         0         0         0
         0         0         0         0         0         0         0         0
         0         0         0         0         0         0         0         0
         0         0         0         0         0         0         0         0
         0         0         0         0         0         0         0         0
         0         0         0         0         0         0         0         0
         0         0         0         0         0         0         0         0
         0         0         0         0         0         0         0         0
         0         0         0         0         0         0         0         0
         0         0         0         0         0         0         0         0
         0         0         0         0         0         0         0         0
         0         0         0         0         0         0         0         0
         0         0         0         0         0         0         0         0
         0         0         0         0         0         0         0         0
         0         0         0         0         0         0         0         0
         0         0         0         0         0         0         0         0
         0         0         0         0         0         0         0         0
         0         0         0         0         0         0         0         0
         0         0         0         0         0         0         0         0
         0         0         0         0         0         0         0         0
         0         0         0         0         0         0         0         0
         0         0         0         0         0         0         0         0
         0         0         0         0         0         0         0         0
         0         0         0         0         0         0         0         0
         0         0         0         0         0         0         0         0
         0         0         0         0         0         0         0         0
         0         0         0         0         0         0         0         0
         0         0         0         0         0         0         0         0
         0         0         0         0         0         0         0         0
         0         0         0         0         0         0         0         0
         0         0         0         0         0         0         0         0
         0         0         0         0         0         0         0         0
         0         0         0         0         0         0         0         0
         0         0         0         0         0         0         0         0
         0         0         0         0         0         0         0         0
         0         0         0         0         0         0         0         0
         0         0         0         0         0         0         0         0
         0         0         0         0         0         0         0         0
         0         0         0         0         0         0         0         0
         0         0         0         0         0         0         0         0
         0         0         0         0         0         0         0         0
         0         0         0         0         0         0         0         0
         0         0         0         0         0         0         0         0
         0         0         0         0         0         0         0         0
         0         0         0         0         0         0         0         0
         0         0         0         0         0         0         0         0
         0         0         0         0         0         0         0         0
         0         0         0         0         0         0         0         0
         0         0         0         0         0         0         0         0
         0         0         0         0         0         0         0         0
         0         0         0         0         0         0         0         0
         0         0         0         0         0         0         0         0
         0         0         0         0         0         0         0         0
         0         0         0         0         0         0         0         0
         0         0         0         0         0         0         0         0
         0         0         0         0         0         0         0         0
         0         0         0         0         0         0         0         0
         0         0         0         0         0         0         0         0
         0         0         0         0         0         0         0         0
         0         0         0         0         0         0         0         0
         0         0         0         0         0         0         0         0
         0         0         0         0         0         0         0         0
         0         0         0         0         0         0         0         0
         0         0         0         0         0         0         0         0
         0         0         0         0         0         0         0         0
         0         0         0         0         0         0         0         0
         0         0         0         0         0         0         0         0
         0         0         0         0         0         0         0         0
         0         0         0         0         0         0         0         0
         0         0         0         0         0         0         0         0
         0         0         0         0         0         0         0         0
         0         0         0         0         0         0         0         0
         0         0         0         0         0         0         0         0
         0         0         0         0         0         0         0         0
         0         0         0         0         0         0         0         0
         0         0         0         0         0         0         0         0
         0         0         0         0         0         0         0         0
         0         0         0         0         0         0         0         0
         0         0         0         0         0         0         0         0
         0         0         0         0         0         0         0         0
         0         0         0         0         0         0         0         0
         0         0         0         0         0         0         0         0
         0         0         0         0         0         0         0         0
         0         0         0         0         0         0         0         0
         0         0         0         0         0         0         0         0
         0         0         0         0         0         0         0         0
         0         0         0         0         0         0         0         0
         0         0         0         0         0         0         0         0
         0         0         0         0         0         0         0         0
         0         0         0         0         0         0         0         0
         0         0         0         0         0         0         0         0
         0         0         0         0         0         0         0         0
         0         0         0         0         0         0         0         0
         0         0         0         0         0         0         0         0
         0         0         0         0         0         0         0         0
         0         0         0         0         0         0         0         0
         0         0         0         0         0         0         0         0
         0         0         0         0         0         0         0         0
         0         0         0         0         0         0         0         0
         0         0         0         0         0         0         0         0
         0         0         0         0         0         0         0         0
         0         0         0         0         0         0         0         0
         0         0         0         0         0         0         0         0
         0         0         0         0         0         0         0         0
         0         0         0         0         0         0         0         0
         0         0         0         0         0         0         0         0
         0         0         0         0         0         0         0         0
         0         0         0         0         0         0         0         0
         0         0         0         0         0         0         0         0
         0         0         0         0         0         0         0         0
         0         0         0         0         0         0         0         0
         0         0         0         0         0         0         0         0
         0         0         0         0         0         0         0         0
         0         0         0         0         0         0         0         0
         0         0         0         0         0         0         0         0
         0         0         0         0         0         0         0         0
         0         0         0         0         0         0         0         0
         0         0         0         0         0         0         0         0
         0         0         0         0         0         0         0         0
         0         0         0         0         0         0         0         0
         0         0         0         0         0         0         0         0
         0         0         0         0         0         0         0         0
         0         0         0         0         0         0         0         0
         0         0         0         0         0         0         0         0
         0         0         0         0         0         0         0         0
         0         0         0         0         0         0         0         0
         0         0         0         0         0         0         0         0
         0         0         0         0         0         0         0         0
         0         0         0         0         0         0         0         0
         0         0         0         0         0         0         0         0
         0         0         0         0         0         0         0         0
         0         0         0         0         0         0         0         0
         0         0         0         0         0         0         0         0
         0         0         0         0         0         0         0         0
         0         0         0         0         0         0         0         0
         0         0         0         0         0         0         0         0
         0         0         0         0         0         0         0         0
         0         0         0         0         0         0         0         0
         0         0         0         0         0         0         0         0
         0         0         0         0         0         0         0         0
         0         0         0         0         0         0         0         0
         0         0         0         0         0         0         0         0
         0         0         0         0         0         0         0         0
         0         0         0         0         0         0         0         0
         0         0         0         0         0         0         0         0
         0         0         0         0         0         0         0         0
         0         0         0         0         0         0         0         0
         0         0         0         0         0         0         0         0
         0         0         0         0         0         0         0         0
         0         0         0         0         0         0         0         0
         0         0         0         0         0         0         0         0
         0         0         0         0         0         0         0         0
         0         0         0         0         0         0         0         0
         0         0         0         0         0         0         0         0
         0         0         0         0         0         0         0         0
         0         0         0         0         0         0         0         0
         0         0         0         0         0         0         0         0
         0         0         0         0         0         0         0         0
         0         0         0         0         0         0         0         0
         0         0         0         0         0         0         0         0
         0         0         0         0         0         0         0         0
         0         0         0         0         0         0         0         0
         0         0         0         0         0         0         0         0
         0         0         0         0         0         0         0         0
         0         0         0         0         0         0         0         0
         0         0         0         0         0         0         0         0
         0         0         0         0         0         0         0         0
         0         0         0         0         0         0         0         0
         0         0         0         0         0         0         0         0
         0         0         0         0         0         0         0         0
         0         0         0         0         0         0         0         0
         0         0         0         0         0         0         0         0
         0         0         0         0         0         0         0         0
         0         0         0         0         0         0         0         0
         0         0         0         0         0         0         0         0
         0         0         0         0         0         0         0         0
         0         0         0         0         0         0         0         0
         0         0         0         0         0         0         0         0
         0         0         0         0         0         0         0         0
         0         0         0         0         0         0         0         0
         0         0         0         0         0         0         0         0
         0         0         0         0         0         0         0         0
         0         0         0         0         0         0         0         0
         0         0         0         0         0         0         0         0
         0         0         0         0         0         0         0         0
         0         0         0         0         0         0         0         0
         0         0         0         0         0         0         0         0
         0         0         0         0         0         0         0         0
         0         0         0         0         0         0         0         0
         0         0         0         0         0         0         0         0
         0         0         0         0         0         0         0         0
         0         0         0         0         0         0         0         0
         0         0         0         0         0         0         0         0
         0         0         0         0         0         0         0         0
         0         0         0         0         0         0         0         0
         0         0         0         0         0         0         0         0
         0         0         0         0         0         0         0         0
         0         0         0         0         0         0         0         0
         0         0         0         0         0         0         0         0
         0         0         0         0         0         0         0         0
         0         0         0         0         0         0         0         0
         0         0         0         0         0         0         0         0
         0         0         0         0         0         0         0         0
         0         0         0         0         0         0         0         0
         0         0         0         0         0         0         0         0
         0         0         0         0         0         0         0         0
         0         0         0         0         0         0         0         0
         0         0         0         0         0         0         0         0
         0         0         0         0         0         0         0         0
         0         0         0         0         0         0         0         0
         0         0         0         0         0         0         0         0
         0         0         0         0         0         0         0         0
         0         0         0         0         0         0         0         0
         0         0         0         0         0         0         0         0
         0         0         0         0         0         0         0         0
         0         0         0         0         0         0         0         0
         0         0         0         0         0         0         0         0
         0         0         0         0         0         0         0         0
         0         0         0         0         0         0         0         0
         0         0         0         0         0         0         0         0
         0         0         0         0         0         0         0         0
         0         0         0         0         0         0         0         0
         0         0         0         0         0         0         0         0
         0         0         0         0         0         0         0         0
         0         0         0         0         0         0         0         0
         0         0         0         0         0         0         0         0
         0         0         0         0         0         0         0         0
         0         0         0         0         0         0         0         0
         0         0         0         0         0         0         0         0
         0         0         0         0         0         0         0         0
         0         0         0         0         0         0         0         0
         0         0         0         0         0         0         0         0
         0         0         0         0         0         0         0         0
         0         0         0         0         0         0         0         0
         0         0         0         0         0         0         0         0
         0         0         0         0         0         0         0         0
         0         0         0         0         0         0         0         0
         0         0         0         0         0         0         0         0
         0         0         0         0         0         0         0         0
         0         0         0         0         0         0         0         0
         0         0         0         0         0         0         0         0
         0         0         0         0         0         0         0         0
         0         0         0         0         0         0         0         0
         0         0         0         0         0         0         0         0
         0         0         0         0         0         0         0         0
         0         0         0         0         0         0         0         0
         0         0         0         0         0         0         0         0
         0         0         0         0         0         0         0         0
         0         0         0         0         0         0         0         0
         0         0         0         0         0         0         0         0
         0         0         0         0         0         0         0         0
         0         0         0         0         0         0         0         0
         0         0         0         0         0         0         0         0
         0         0         0         0         0         0         0         0
         0         0         0         0         0         0         0         0
         0         0         0         0         0         0         0         0
         0         0         0         0         0         0         0         0
         0         0         0         0         0         0         0         0
         0         0         0         0         0         0         0         0
         0         0         0         0         0         0         0         0
         0         0         0         0         0         0         0         0
         0         0         0         0         0         0         0         0
         0         0         0         0         0         0         0         0
         0         0         0         0         0         0         0         0
         0         0         0         0         0         0         0         0
         0         0         0         0         0         0         0         0
         0         0         0         0         0         0         0         0
         0         0         0         0         0         0         0         0
         0         0         0         0         0         0         0         0
         0         0         0         0         0         0         0         0
         0         0         0         0         0         0         0         0
         0         0         0         0         0         0         0         0
         0         0         0         0         0         0         0         0
         0         0         0         0         0         0         0         0
         0         0         0         0         0         0         0         0
         0         0         0         0         0         0         0         0
         0         0         0         0         0         0         0         0
         0         0         0         0         0         0         0         0
         0         0         0         0         0         0         0         0
         0         0         0         0         0         0         0         0
         0         0         0         0         0         0         0         0
         0         0         0         0         0         0         0         0
         0         0         0         0         0         0         0         0
         0         0         0         0         0         0         0         0
         0         0         0         0         0         0         0         0
         0         0         0         0         0         0         0         0
         0         0         0         0         0         0         0         0
         0         0         0         0         0         0         0         0
         0         0         0         0         0         0         0         0
         0         0         0         0         0         0         0         0
         0         0         0         0         0         0         0         0
         0         0         0         0         0         0         0         0
         0         0         0         0         0         0         0         0
         0         0         0         0         0         0         0         0
         0         0         0         0         0         0         0         0
         0         0         0         0         0         0         0         0
         0         0         0         0         0         0         0         0
         0         0         0         0         0         0         0         0
         0         0         0         0         0         0         0         0
         0         0         0         0         0         0         0         0
         0         0         0         0         0         0         0         0
         0         0         0         0         0         0         0         0
         0         0         0         0         0         0         0         0
         0         0         0         0         0         0         0         0
         0         0         0         0         0         0         0         0
         0         0         0         0         0         0         0         0
         0         0         0         0         0         0         0         0
         0         0         0         0         0         0         0         0
         0         0         0         0         0         0         0         0
         0         0         0         0         0         0         0         0
         0         0         0         0         0         0         0         0
         0         0         0         0         0         0         0         0
         0         0         0         0         0         0         0         0
         0         0         0         0         0         0         0         0
         0         0         0         0         0         0         0         0
         0         0         0         0         0         0         0         0
         0         0         0         0         0         0         0         0
         0         0         0         0         0         0         0         0
         0         0         0         0         0         0         0         0
         0         0         0         0         0         0         0         0
         0         0         0         0         0         0         0         0
         0         0         0         0         0         0         0         0
         0         0         0         0         0         0         0         0
         0         0         0         0         0         0         0         0
         0         0         0         0         0         0         0         0
         0         0         0         0         0         0         0         0
         0         0         0         0         0         0         0         0
         0         0         0         0         0         0         0         0
         0         0         0         0         0         0         0         0
         0         0         0         0         0         0         0         0
         0         0         0         0         0         0         0         0
         0         0         0         0         0         0         0         0
         0         0         0         0         0         0         0         0
         0         0         0         0         0         0         0         0
         0         0         0         0         0         0         0         0
         0         0         0         0         0         0         0         0
         0         0         0         0         0         0         0         0
         0         0         0         0         0         0         0         0
         0         0         0         0         0         0         0         0
         0         0         0         0         0         0         0         0
         0         0         0         0         0         0         0         0
         0         0         0         0         0         0         0         0
         0         0         0         0         0         0         0         0
         0         0         0         0         0         0         0         0
         0         0         0         0         0         0         0         0
         0         0         0         0         0         0         0         0
         0         0         0         0         0         0         0         0
         0         0         0         0         0         0         0         0
         0         0         0         0         0         0         0         0
         0         0         0         0         0         0         0         0
         0         0         0         0         0         0         0         0
         0         0         0         0         0         0         0         0
         0         0         0         0         0         0         0         0
         0         0         0         0         0         0         0         0
         0         0         0         0         0         0         0         0
         0         0         0         0         0         0         0         0
         0         0         0         0         0         0         0         0
         0         0         0         0         0         0         0         0
         0         0         0         0         0         0         0         0
         0         0         0         0         0         0         0         0
         0         0         0         0         0         0         0         0
         0         0         0         0         0         0         0         0
         0         0         0         0         0         0         0         0
         0         0         0         0         0         0         0         0
         0         0         0         0         0         0         0         0
         0         0         0         0         0         0         0         0
         0         0         0         0         0         0         0         0
         0         0         0         0         0         0         0         0
         0         0         0         0         0         0         0         0
         0         0         0         0         0         0         0         0
         0         0         0         0         0         0         0         0
         0         0         0         0         0         0         0         0
         0         0         0         0         0         0         0         0
         0         0         0         0         0         0         0         0
         0         0         0         0         0         0         0         0
         0         0         0         0         0         0         0         0
         0         0         0         0         0         0         0         0
         0         0         0         0         0         0         0         0
         0         0         0         0         0         0         0         0
         0         0         0         0         0         0         0         0
         0         0         0         0         0         0         0         0
         0         0         0         0         0         0         0         0
         0         0         0         0         0         0         0         0
         0         0         0         0         0         0         0         0
         0         0         0         0         0         0         0         0
         0         0         0         0         0         0         0         0
         0         0         0         0         0         0         0         0
         0         0         0         0         0         0         0         0
         0         0         0         0         0         0         0         0
         0         0         0         0         0         0         0         0
         0         0         0         0         0         0         0         0
         0         0         0         0         0         0         0         0
         0         0         0         0         0         0         0         0
         0         0         0         0         0         0         0         0
         0         0         0         0         0         0         0         0
         0         0         0         0         0         0         0         0
         0         0         0         0         0         0         0         0
         0         0         0         0         0         0         0         0
         0         0         0         0         0         0         0         0
         0         0         0         0         0         0         0         0
         0         0         0         0         0         0         0         0
         0         0         0         0         0         0         0         0
         0         0         0         0         0         0         0         0
         0         0         0         0         0         0         0         0
         0         0         0         0         0         0         0         0
         0         0         0         0         0         0         0         0
         0         0         0         0         0         0         0         0
         0         0         0         0         0         0         0         0
         0         0         0         0         0         0         0         0
         0         0         0         0         0         0         0         0
         0         0         0         0         0         0         0         0
         0         0         0         0         0         0         0         0
         0         0         0         0         0         0         0         0
         0         0         0         0         0         0         0         0
         0         0         0         0         0         0         0         0
         0         0         0         0         0         0         0         0
         0         0         0         0         0         0         0         0
         0         0         0         0         0         0         0         0
         0         0         0         0         0         0         0         0
         0         0         0         0         0         0         0         0
         0         0         0         0         0         0         0         0
         0         0         0         0         0         0         0         0
         0         0         0         0         0         0         0         0
         0         0         0         0         0         0         0         0
         0         0         0         0         0         0         0         0
         0         0         0         0         0         0         0         0
         0         0         0         0         0         0         0         0
         0         0         0         0         0         0         0         0
         0         0         0         0         0         0         0         0
         0         0         0         0         0         0         0         0
         0         0         0         0         0         0         0         0
         0         0         0         0         0         0         0         0
         0         0         0         0         0         0         0         0
         0         0         0         0         0         0         0         0
         0         0         0         0         0         0         0         0
         0         0         0         0         0         0         0         0
         0         0         0         0         0         0         0         0
         0         0         0         0         0         0         0         0
         0         0         0         0         0         0         0         0
         0         0         0         0         0         0         0         0
         0         0         0         0         0         0         0         0
         0         0         0         0         0         0         0         0
         0         0         0         0         0         0         0         0
         0         0         0         0         0         0         0         0
         0         0         0         0         0         0         0         0
         0         0         0         0         0         0         0         0
         0         0         0         0         0         0         0         0
         0         0         0         0         0         0         0         0
         0         0         0         0         0         0         0         0
         0         0         0         0         0         0         0         0
         0         0         0         0         0         0         0         0
         0         0         0         0         0         0         0         0
         0         0         0         0         0         0         0         0
         0         0         0         0         0         0         0         0
         0         0         0         0         0         0         0         0
         0         0         0         0         0         0         0         0
         0         0         0         0         0         0         0         0
         0         0         0         0         0         0         0         0
         0         0         0         0         0         0         0         0
         0         0         0         0         0         0         0         0
         0         0         0         0         0         0         0         0
         0         0         0         0         0         0         0         0
         0         0         0         0         0         0         0         0
         0         0         0         0         0         0         0         0
         0         0         0         0         0         0         0         0
         0         0         0         0         0         0         0         0
         0         0         0         0         0         0         0         0
         0         0         0         0         0         0         0         0
         0         0         0         0         0         0         0         0
         0         0         0         0         0         0         0         0
         0         0         0         0         0         0         0         0
         0         0         0         0         0         0         0         0
         0         0         0         0         0         0         0         0
         0         0         0         0         0         0         0         0
         0         0         0         0         0         0         0         0
         0         0         0         0         0         0         0         0
         0         0         0         0         0         0         0         0
         0         0         0         0         0         0         0         0
         0         0         0         0         0         0         0         0
         0         0         0         0         0         0         0         0
         0         0         0         0         0         0         0         0
         0         0         0         0         0         0         0         0
         0         0         0         0         0         0         0         0
         0         0         0         0         0         0         0         0
         0         0         0         0         0         0         0         0
         0         0         0         0         0         0         0         0
         0         0         0         0         0         0         0         0
         0         0         0         0         0         0         0         0
         0         0         0         0         0         0         0         0
         0         0         0         0         0         0         0         0
         0         0         0         0         0         0         0         0
         0         0         0         0         0         0         0         0
         0         0         0         0         0         0         0         0
         0         0         0         0         0         0         0         0
         0         0         0         0         0         0         0         0
         0         0         0         0         0         0         0         0
         0         0         0         0         0         0         0         0
         0         0         0         0         0         0         0         0
         0         0         0         0         0         0         0         0
         0         0         0         0         0         0         0         0
         0         0         0         0         0         0         0         0
         0         0         0         0         0         0         0         0
         0         0         0         0         0         0         0         0
         0         0         0         0         0         0         0         0
         0         0         0         0         0         0         0         0
         0         0         0         0         0         0         0         0
         0         0         0         0         0         0         0         0
         0         0         0         0         0         0         0         0
         0         0         0         0         0         0         0         0
         0         0         0         0         0         0         0         0
         0         0         0         0         0         0         0         0
         0         0         0         0         0         0         0         0
         0         0         0         0         0         0         0         0
         0         0         0         0         0         0         0         0
         0         0         0         0         0         0         0         0
         0         0         0         0         0         0         0         0
         0         0         0         0         0         0         0         0
         0         0         0         0         0         0         0         0
         0         0         0         0         0         0         0         0
         0         0         0         0         0         0         0         0
         0         0         0         0         0         0         0         0
         0         0         0         0         0         0         0         0
         0         0         0         0         0         0         0         0
         0         0         0         0         0         0         0         0
         0         0         0         0         0         0         0         0
         0         0         0         0         0         0         0         0
         0         0         0         0         0         0         0         0
         0         0         0         0         0         0         0         0
         0         0         0         0         0         0         0         0
         0         0         0         0         0         0         0         0
         0         0         0         0         0         0         0         0
         0         0         0         0         0         0         0         0
         0         0         0         0         0         0         0         0
         0         0         0         0         0         0         0         0
         0         0         0         0         0         0         0         0
         0         0         0         0         0         0         0         0
         0         0         0         0         0         0         0         0
         0         0         0         0         0         0         0         0
         0         0         0         0         0         0         0         0
         0         0         0         0         0         0         0         0
         0         0         0         0         0         0         0         0
         0         0         0         0         0         0         0         0
         0         0         0         0         0         0         0         0
         0         0         0         0         0         0         0         0
         0         0         0         0         0         0         0         0
         0         0         0         0         0         0         0         0
         0         0         0         0         0         0         0         0
         0         0         0         0         0         0         0         0
         0         0         0         0         0         0         0         0
         0         0         0         0         0         0         0         0
         0         0         0         0         0         0         0         0
         0         0         0         0         0         0         0         0
         0         0         0         0         0         0         0         0
         0         0         0         0         0         0         0         0
         0         0         0         0         0         0         0         0
         0         0         0         0         0         0         0         0
         0         0         0         0         0         0         0         0
         0         0         0         0         0         0         0         0
         0         0         0         0         0         0         0         0
         0         0         0         0         0         0         0         0
         0         0         0         0         0         0         0         0
         0         0         0         0         0         0         0         0
         0         0         0         0         0         0         0         0
         0         0         0         0         0         0         0         0
         0         0         0         0         0         0         0         0
         0         0         0         0         0         0         0         0
         0         0         0         0         0         0         0         0
         0         0         0         0         0         0         0         0
         0         0         0         0         0         0         0         0
         0         0         0         0         0         0         0         0
         0         0         0         0         0         0         0         0
         0         0         0         0         0         0         0         0
         0         0         0         0         0         0         0         0
         0         0         0         0         0         0         0         0
         0         0         0         0         0         0         0         0
         0         0         0         0         0         0         0         0
         0         0         0         0         0         0         0         0
         0         0         0         0         0         0         0         0
         0         0         0         0         0         0         0         0
         0         0         0         0         0         0         0         0
         0         0         0         0         0         0         0         0
         0         0         0         0         0         0         0         0
         0         0         0         0         0         0         0         0
         0         0         0         0         0         0         0         0
         0         0         0         0         0         0         0         0
         0         0         0         0         0         0         0         0
         0         0         0         0         0         0         0         0
         0         0         0         0         0         0         0         0
         0         0         0         0         0         0         0         0
         0         0         0         0         0         0         0         0
         0         0         0         0         0         0         0         0
         0         0         0         0         0         0         0         0
         0         0         0         0         0         0         0         0
         0         0         0         0         0         0         0         0
         0         0         0         0         0         0         0         0
         0         0         0         0         0         0         0         0
         0         0         0         0         0         0         0         0
         0         0         0         0         0         0         0         0
         0         0         0         0         0         0         0         0
         0         0         0         0         0         0         0         0
         0         0         0         0         0         0         0         0
         0         0         0         0         0         0         0         0
         0         0         0         0         0         0         0         0
         0         0         0         0         0         0         0         0
         0         0         0         0         0         0         0         0
         0         0         0         0         0         0         0         0
         0         0         0         0         0         0         0         0
         0         0         0         0         0         0         0         0
         0         0         0         0         0         0         0         0
         0         0         0         0         0         0         0         0
         0         0         0         0         0         0         0         0
         0         0         0         0         0         0         0         0
         0         0         0         0         0         0         0         0
         0         0         0         0         0         0         0         0
         0         0         0         0         0         0         0         0
         0         0         0         0         0         0         0         0
         0         0         0         0         0         0         0         0
         0         0         0         0         0         0         0         0
         0         0         0         0         0         0         0         0
         0         0         0         0         0         0         0         0
         0         0         0         0         0         0         0         0
         0         0         0         0         0         0         0         0
         0         0         0         0         0         0         0         0
         0         0         0         0         0         0         0         0
         0         0         0         0         0         0         0         0
         0         0         0         0         0         0         0         0
         0         0         0         0         0         0         0         0
         0         0         0         0         0         0         0         0
         0         0         0         0         0         0         0         0
         0         0         0         0         0         0         0         0
         0         0         0         0         0         0         0         0
         0         0         0         0         0         0         0         0
         0         0         0         0         0         0         0         0
         0         0         0         0         0         0         0         0
         0         0         0         0         0         0         0         0
         0         0         0         0         0         0         0         0
         0         0         0         0         0         0         0         0
         0         0         0         0         0         0         0         0
         0         0         0         0         0         0         0         0
         0         0         0         0         0         0         0         0
         0         0         0         0         0         0         0         0
         0         0         0         0         0         0         0         0
         0         0         0         0         0         0         0         0
         0         0         0         0         0         0         0         0
         0         0         0         0         0         0         0         0
         0         0         0         0         0         0         0         0
         0         0         0         0         0         0         0         0
         0         0         0         0         0         0         0         0
         0         0         0         0         0         0         0         0
         0         0         0         0         0         0         0         0
         0         0         0         0         0         0         0         0
         0         0         0         0         0         0         0         0
         0         0         0         0         0         0         0         0
         0         0         0         0         0         0         0         0
         0         0         0         0         0         0         0         0
         0         0         0         0         0         0         0         0
         0         0         0         0         0         0         0         0
         0         0         0         0         0         0         0         0
         0         0         0         0         0         0         0         0
         0         0         0         0         0         0         0         0
         0         0         0         0         0         0         0         0
         0         0         0         0         0         0         0         0
         0         0         0         0         0         0         0         0
         0         0         0         0         0         0         0         0
         0         0         0         0         0         0         0         0
         0         0         0         0         0         0         0         0
         0         0         0         0         0         0         0         0
         0         0         0         0         0         0         0         0
         0         0         0         0         0         0         0         0
         0         0         0         0         0         0         0         0
         0         0         0         0         0         0         0         0
         0         0         0         0         0         0         0         0
         0         0         0         0         0         0         0         0
         0         0         0         0         0         0         0         0
         0         0         0         0         0         0         0         0
         0         0         0         0         0         0         0         0
         0         0         0         0         0         0         0         0
         0         0         0         0         0         0         0         0
         0         0         0         0         0         0         0         0
         0         0         0         0         0         0         0         0
         0         0         0         0         0         0         0         0
         0         0         0         0         0         0         0         0
         0         0         0         0         0         0         0         0
         0         0         0         0         0         0         0         0
         0         0         0         0         0         0         0         0
         0         0         0         0         0         0         0         0
         0         0         0         0         0         0         0         0
         0         0         0         0         0         0         0         0
         0         0         0         0         0         0         0         0
         0         0         0         0         0         0         0         0
         0         0         0         0         0         0         0         0
         0         0         0         0         0         0         0         0
         0         0         0         0         0         0         0         0
         0         0         0         0         0         0         0         0
         0         0         0         0         0         0         0         0
         0         0         0         0         0         0         0         0
         0         0         0         0         0         0         0         0
         0         0         0         0         0         0         0         0
         0         0         0         0         0         0         0         0
         0         0         0         0         0         0         0         0
         0         0         0         0         0         0         0         0
         0         0         0         0         0         0         0         0
         0         0         0         0         0         0         0         0
         0         0         0         0         0         0         0         0
         0         0         0         0         0         0         0         0
         0         0         0         0         0         0         0         0
         0         0         0         0         0         0         0         0
         0         0         0         0         0         0         0         0
         0         0         0         0         0         0         0         0
         0         0         0         0         0         0         0         0
         0         0         0         0         0         0         0         0
         0         0         0         0         0         0         0         0
         0         0         0         0         0         0         0         0
         0         0         0         0         0         0         0         0
         0         0         0         0         0         0         0         0
         0         0         0         0         0         0         0         0
         0         0         0         0         0         0         0         0
         0         0         0         0         0         0         0         0
         0         0         0         0         0         0         0         0
         0         0         0         0         0         0         0         0
         0         0         0         0         0         0         0         0
         0         0         0         0         0         0         0         0
         0         0         0         0         0         0         0         0
         0         0         0         0         0         0         0         0
         0         0         0         0         0         0         0         0
         0         0         0         0         0         0         0         0
         0         0         0         0         0         0         0         0
         0         0         0         0         0         0         0         0
         0         0         0         0         0         0         0         0
         0         0         0         0         0         0         0         0
         0         0         0         0         0         0         0         0
         0         0         0         0         0         0         0         0
         0         0         0         0         0         0         0         0
         0         0         0         0         0         0         0         0
         0         0         0         0         0         0         0         0
         0         0         0         0         0         0         0         0
         0         0         0         0         0         0         0         0
         0         0         0         0         0         0         0         0
         0         0         0         0         0         0         0         0
         0         0         0         0         0         0         0         0
         0         0         0         0         0         0         0         0
         0         0         0         0         0         0         0         0
         0         0         0         0         0         0         0         0
         0         0         0         0         0         0         0         0
         0         0         0         0         0         0         0         0
         0         0         0         0         0         0         0         0
         0         0         0         0         0         0         0         0
         0         0         0         0         0         0         0         0
         0         0         0         0         0         0         0         0
         0         0         0         0         0         0         0         0
         0         0         0         0         0         0         0         0
         0         0         0         0         0         0         0         0
         0         0         0         0         0         0         0         0
         0         0         0         0         0         0         0         0
         0         0         0         0         0         0         0         0
         0         0         0         0         0         0         0         0
         0         0         0         0         0         0         0         0
         0         0         0         0         0         0         0         0
         0         0         0         0         0         0         0         0
         0         0         0         0         0         0         0         0
         0         0         0         0         0         0         0         0
         0         0         0         0         0         0         0         0
         0         0         0         0         0         0         0         0
         0         0         0         0         0         0         0         0
         0         0         0         0         0         0         0         0
         0         0         0         0         0         0         0         0
         0         0         0         0         0         0         0         0
         0         0         0         0         0         0         0         0
         0         0         0         0         0         0         0         0
         0         0         0         0         0         0         0         0
         0         0         0         0         0         0         0         0
         0         0         0         0         0         0         0         0
         0         0         0         0         0         0         0         0
         0         0         0         0         0         0         0         0
         0         0         0         0         0         0         0         0
         0         0         0         0         0         0         0         0
         0         0         0         0         0         0         0         0
         0         0         0         0         0         0         0         0
         0         0         0         0         0         0         0         0
         0         0         0         0         0         0         0         0
         0         0         0         0         0         0         0         0
         0         0         0         0         0         0         0         0
         0         0         0         0         0         0         0         0
         0         0         0         0         0         0         0         0
         0         0         0         0         0         0         0         0
         0         0         0         0         0         0         0         0
         0         0         0         0         0         0         0         0
         0         0         0         0         0         0         0         0
         0         0         0         0         0         0         0         0
         0         0         0         0         0         0         0         0
         0         0         0         0         0         0         0         0
         0         0         0         0         0         0         0         0
         0         0         0         0         0         0         0         0
         0         0         0         0         0         0         0         0
         0         0         0         0         0         0         0         0
         0         0         0         0         0         0         0         0
         0         0         0         0         0         0         0         0
         0         0         0         0         0         0         0         0
         0         0         0         0         0         0         0         0
         0         0         0         0         0         0         0         0
         0         0         0         0         0         0         0         0
         0         0         0         0         0         0         0         0
         0         0         0         0         0         0         0         0
         0         0         0         0         0         0         0         0
         0         0         0         0         0         0         0         0
         0         0         0         0         0         0         0         0
         0         0         0         0         0         0         0         0
         0         0         0         0         0         0         0         0
         0         0         0         0         0         0         0         0
         0         0         0         0         0         0         0         0
         0         0         0         0         0         0         0         0
         0         0         0         0         0         0         0         0
         0         0         0         0         0         0         0         0
         0         0         0         0         0         0         0         0
         0         0         0         0         0         0         0         0
         0         0         0         0         0         0         0         0
         0         0         0         0         0         0         0         0
         0         0         0         0         0         0         0         0
         0         0         0         0         0         0         0         0
         0         0         0         0         0         0         0         0
         0         0         0         0         0         0         0         0
         0         0         0         0         0         0         0         0
         0         0         0         0         0         0         0         0
         0         0         0         0         0         0         0         0
         0         0         0         0         0         0         0         0
         0         0         0         0         0         0         0         0
         0         0         0         0         0         0         0         0
         0         0         0         0         0         0         0         0
         0         0         0         0         0         0         0         0
         0         0         0         0         0         0         0         0
         0         0         0         0         0         0         0         0
         0         0         0         0         0         0         0         0
         0         0         0         0         0         0         0         0
         0         0         0         0         0         0         0         0
         0         0         0         0         0         0         0         0
         0         0         0         0         0         0         0         0
         0         0         0         0         0         0         0         0
         0         0         0         0         0         0         0         0
         0         0         0         0         0         0         0         0
         0         0         0         0         0         0         0         0
         0         0         0         0         0         0         0         0
         0         0         0         0         0         0         0         0
         0         0         0         0         0         0         0         0
         0         0         0         0         0         0         0         0
         0         0         0         0         0         0         0         0
         0         0         0         0         0         0         0         0
         0         0         0         0         0         0         0         0
         0         0         0         0         0         0         0         0
         0         0         0         0         0         0         0         0
         0         0         0         0         0         0         0         0
         0         0         0         0         0         0         0         0
         0         0         0         0         0         0         0         0
         0         0         0         0         0         0         0         0
         0         0         0         0         0         0         0         0
         0         0         0         0         0         0         0         0
         0         0         0         0         0         0         0         0
         0         0         0         0         0         0         0         0
         0         0         0         0         0         0         0         0
         0         0         0         0         0         0         0         0
         0         0         0         0         0         0         0         0
         0         0         0         0         0         0         0         0
         0         0         0         0         0         0         0         0
         0         0         0         0         0         0         0         0
         0         0         0         0         0         0         0         0
         0         0         0         0         0         0         0         0
         0         0         0         0         0         0         0         0
         0         0         0         0         0         0         0         0
         0         0         0         0         0         0         0         0
         0         0         0         0         0         0         0         0
         0         0         0         0         0         0         0         0
         0         0         0         0         0         0         0         0
         0         0         0         0         0         0         0         0
         0         0         0         0         0         0         0         0
         0         0         0         0         0         0         0         0
         0         0         0         0         0         0         0         0
         0         0         0         0         0         0         0         0
         0         0         0         0         0         0         0         0
         0         0         0         0         0         0         0         0
         0         0         0         0         0         0         0         0
         0         0         0         0         0         0         0         0
         0         0         0         0         0         0         0         0
         0         0         0         0         0         0         0         0
         0         0         0         0         0         0         0         0
         0         0         0         0         0         0         0         0
         0         0         0         0         0         0         0         0
         0         0         0         0         0         0         0         0
         0         0         0         0         0         0         0         0
         0         0         0         0         0         0         0         0
         0         0         0         0         0         0         0         0
         0         0         0         0         0         0         0         0
         0         0         0         0         0         0         0         0
         0         0         0         0         0         0         0         0
         0         0         0         0         0         0         0         0
         0         0         0         0         0         0         0         0
         0         0         0         0         0         0         0         0
         0         0         0         0         0         0         0         0
         0         0         0         0         0         0         0         0
         0         0         0         0         0         0         0         0
         0         0         0         0         0         0         0         0
         0         0         0         0         0         0         0         0
         0         0         0         0         0         0         0         0
         0         0         0         0         0         0         0         0
         0         0         0         0         0         0         0         0
         0         0         0         0         0         0         0         0
         0         0         0         0         0         0         0         0
         0         0         0         0         0         0         0         0
         0         0         0         0         0         0         0         0
         0         0         0         0         0         0         0         0
         0         0         0         0         0         0         0         0
         0         0         0         0         0         0         0         0
         0         0         0         0         0         0         0         0
         0         0         0         0         0         0         0         0
         0         0         0         0         0         0         0         0
         0         0         0         0         0         0         0         0
         0         0         0         0         0         0         0         0
         0         0         0         0         0         0         0         0
         0         0         0         0         0         0         0         0
         0         0         0         0         0         0         0         0
         0         0         0         0         0         0         0         0
         0         0         0         0         0         0         0         0
         0         0         0         0         0         0         0         0
         0         0         0         0         0         0         0         0
         0         0         0         0         0         0         0         0
         0         0         0         0         0         0         0         0
         0         0         0         0         0         0         0         0
         0         0         0         0         0         0         0         0
         0         0         0         0         0         0         0         0
         0         0         0         0         0         0         0         0
         0         0         0         0         0         0         0         0
         0         0         0         0         0         0         0         0
         0         0         0         0         0         0         0         0
         0         0         0         0         0         0         0         0
         0         0         0         0         0         0         0         0
         0         0         0         0         0         0         0         0
         0         0         0         0         0         0         0         0
         0         0         0         0         0         0         0         0
         0         0         0         0         0         0         0         0
         0         0         0         0         0         0         0         0
         0         0         0         0         0         0         0         0
         0         0         0         0         0         0         0         0
         0         0         0         0         0         0         0         0
         0         0         0         0         0         0         0         0
         0         0         0         0         0         0         0         0
         0         0         0         0         0         0         0         0
         0         0         0         0         0         0         0         0
         0         0         0         0         0         0         0         0
         0         0         0         0         0         0         0         0
         0         0         0         0         0         0         0         0
         0         0         0         0         0         0         0         0
         0         0         0         0         0         0         0         0
         0         0         0         0         0         0         0         0
         0         0         0         0         0         0         0         0
         0         0         0         0         0         0         0         0
         0         0         0         0         0         0         0         0
         0         0         0         0         0         0         0         0
         0         0         0         0         0         0         0         0
         0         0         0         0         0         0         0         0
         0         0         0         0         0         0         0         0
         0         0         0         0         0         0         0         0
         0         0         0         0         0         0         0         0
         0         0         0         0         0         0         0         0
         0         0         0         0         0         0         0         0
         0         0         0         0         0         0         0         0
         0         0         0         0         0         0         0         0
         0         0         0         0         0         0         0         0
         0         0         0         0         0         0         0         0
         0         0         0         0         0         0         0         0
         0         0         0         0         0         0         0         0
         0         0         0         0         0         0         0         0
         0         0         0         0         0         0         0         0
         0         0         0         0         0         0         0         0
         0         0         0         0         0         0         0         0
         0         0         0         0         0         0         0         0
         0         0         0         0         0         0         0         0
         0         0         0         0         0         0         0         0
         0         0         0         0         0         0         0         0
         0         0         0         0         0         0         0         0
         0         0         0         0         0         0         0         0
         0         0         0         0         0         0         0         0
         0         0         0         0         0         0         0         0
         0         0         0         0         0         0         0         0
         0         0         0         0         0         0         0         0
         0         0         0         0         0         0         0         0
         0         0         0         0         0         0         0         0
         0         0         0         0         0         0         0         0
         0         0         0         0         0         0         0         0
         0         0         0         0         0         0         0         0
         0         0         0         0         0         0         0         0
         0         0         0         0         0         0         0         0
         0         0         0         0         0         0         0         0
         0         0         0         0         0         0         0         0
         0         0         0         0         0         0         0         0
         0         0         0         0         0         0         0         0
         0         0         0         0         0         0         0         0
         0         0         0         0         0         0         0         0
         0         0         0         0         0         0         0         0
         0         0         0         0         0         0         0         0
         0         0         0         0         0         0         0         0
         0         0         0         0         0         0         0         0
         0         0         0         0         0         0         0         0
         0         0         0         0         0         0         0         0
         0         0         0         0         0         0         0         0
         0         0         0         0         0         0         0         0
         0         0         0         0         0         0         0         0
         0         0         0         0         0         0         0         0
         0         0         0         0         0         0         0         0
         0         0         0         0         0         0         0         0
         0         0         0         0         0         0         0         0
         0         0         0         0         0         0         0         0
         0         0         0         0         0         0         0         0
         0         0         0         0         0         0         0         0
         0         0         0         0         0         0         0         0
         0         0         0         0         0         0         0         0
         0         0         0         0         0         0         0         0
         0         0         0         0         0         0         0         0
         0         0         0         0         0         0         0         0
         0         0         0         0         0         0         0         0
         0         0         0         0         0         0         0         0
         0         0         0         0         0         0         0         0
         0         0         0         0         0         0         0         0
         0         0         0         0         0         0         0         0
         0         0         0         0         0         0         0         0
         0         0         0         0         0         0         0         0
         0         0         0         0         0         0         0         0
         0         0         0         0         0         0         0         0
         0         0         0         0         0         0         0         0
         0         0         0         0         0         0         0         0
         0         0         0         0         0         0         0         0
         0         0         0         0         0         0         0         0
         0         0         0         0         0         0         0         0
         0         0         0         0         0         0         0         0
         0         0         0         0         0         0         0         0
         0         0         0         0         0         0         0         0
         0         0         0         0         0         0         0         0
         0         0         0         0         0         0         0         0
         0         0         0         0         0         0         0         0
         0         0         0         0         0         0         0         0
         0         0         0         0         0         0         0         0
         0         0         0         0         0         0         0         0
         0         0         0         0         0         0         0         0
         0         0         0         0         0         0         0         0
         0         0         0         0         0         0         0         0
         0         0         0         0         0         0         0         0
         0         0         0         0         0         0         0         0
         0         0         0         0         0         0         0         0
         0         0         0         0         0         0         0         0
         0         0         0         0         0         0         0         0
         0         0         0         0         0         0         0         0
         0         0         0         0         0         0         0         0
         0         0         0         0         0         0         0         0
         0         0         0         0         0         0         0         0
         0         0         0         0         0         0         0         0
         0         0         0         0         0         0         0         0
         0         0         0         0         0         0         0         0
         0         0         0         0         0         0         0         0
         0         0         0         0         0         0         0         0
         0         0         0         0         0         0         0         0
         0         0         0         0         0         0         0         0
         0         0         0         0         0         0         0         0
         0         0         0         0         0         0         0         0
         0         0         0         0         0         0         0         0
         0         0         0         0         0         0         0         0
         0         0         0         0         0         0         0         0
         0         0         0         0         0         0         0         0
         0         0         0         0         0         0         0         0
         0         0         0         0         0         0         0         0
         0         0         0         0         0         0         0         0
         0         0         0         0         0         0         0         0
         0         0         0         0         0         0         0         0
         0         0         0         0         0         0         0
     17337     17336     17338         0         1
     17340     17339     17341         0         1
     17343     17342     17344         0         1
     17346     17345     17347         0         1
     17349     17348     17350         0         1
     17352     17351     17353         0         1
     17355     17354     17356         0         1
     17358     17357     17359         0         1
     17361     17360     17362         0         1
     17364     17363     17365         0         1
     17367     17366     17368         0         1
     17370     17369     17371         0         1
     17373     17372     17374         0         1
     17376     17375     17377         0         1
     17379     17378     17380         0         1
     17382     17381     17383         0         1
     17385     17384     17386         0         1
     17388     17387     17389         0         1
     17391     17390     17392         0         1
     17394     17393     17395         0         1
     17397     17396     17398         0         1
     17400     17399     17401         0         1
     17403     17402     17404         0         1
     17406     17405     17407         0         1
     17409     17408     17410         0         1
     17412     17411     17413         0         1
     17415     17414     17416         0         1
     17418     17417     17419         0         1
     17421     17420     17422         0         1
     17424     17423     17425         0         1
     17427     17426     17428         0         1
     17430     17429     17431         0         1
     17433     17432     17434         0         1
     17436     17435     17437         0         1
     17439     17438     17440         0         1
     17442     17441     17443         0         1
     17445     17444     17446         0         1
     17448     17447     17449         0         1
     17451     17450     17452         0         1
     17454     17453     17455         0         1
     17457     17456     17458         0         1
     17460     17459     17461         0         1
     17463     17462     17464         0         1
     17466     17465     17467         0         1
     17469     17468     17470         0         1
     17472     17471     17473         0         1
     17475     17474     17476         0         1
     17478     17477     17479         0         1
     17481     17480     17482         0         1
     17484     17483     17485         0         1
     17487     17486     17488         0         1
     17490     17489     17491         0         1
     17493     17492     17494         0         1
     17496     17495     17497         0         1
     17499     17498     17500         0         1
     17502     17501     17503         0         1
     17505     17504     17506         0         1
     17508     17507     17509         0         1
     17511     17510     17512         0         1
     17514     17513     17515         0         1
     17517     17516     17518         0         1
     17520     17519     17521         0         1
     17523     17522     17524         0         1
     17526     17525     17527         0         1
     17529     17528     17530         0         1
     17532     17531     17533         0         1
     17535     17534     17536         0         1
     17538     17537     17539         0         1
     17541     17540     17542         0         1
     17544     17543     17545         0         1
     17547     17546     17548         0         1
     17550     17549     17551         0         1
     17553     17552     17554         0         1
     17556     17555     17557         0         1
     17559     17558     17560         0         1
     17562     17561     17563         0         1
     17565     17564     17566         0         1
     17568     17567     17569         0         1
     17571     17570     17572         0         1
     17574     17573     17575         0         1
     17577     17576     17578         0         1
     17580     17579     17581         0         1
     17583     17582     17584         0         1
     17586     17585     17587         0         1
     17589     17588     17590         0         1
     17592     17591     17593         0         1
     17595     17594     17596         0         1
     17598     17597     17599         0         1
     17601     17600     17602         0         1
     17604     17603     17605         0         1
     17607     17606     17608         0         1
     17610     17609     17611         0         1
     17613     17612     17614         0         1
     17616     17615     17617         0         1
     17619     17618     17620         0         1
     17622     17621     17623         0         1
     17625     17624     17626         0         1
     17628     17627     17629         0         1
     17631     17630     17632         0         1
     17634     17633     17635         0         1
     17637     17636     17638         0         1
     17640     17639     17641         0         1
     17643     17642     17644         0         1
     17646     17645     17647         0         1
     17649     17648     17650         0         1
     17652     17651     17653         0         1
     17655     17654     17656         0         1
     17658     17657     17659         0         1
     17661     17660     17662         0         1
     17664     17663     17665         0         1
     17667     17666     17668         0         1
     17670     17669     17671         0         1
     17673     17672     17674         0         1
     17676     17675     17677         0         1
     17679     17678     17680         0         1
     17682     17681     17683         0         1
     17685     17684     17686         0         1
     17688     17687     17689         0         1
     17691     17690     17692         0         1
     17694     17693     17695         0         1
     17697     17696     17698         0         1
     17700     17699     17701         0         1
     17703     17702     17704         0         1
     17706     17705     17707         0         1
     17709     17708     17710         0         1
     17712     17711     17713         0         1
     17715     17714     17716         0         1
     17718     17717     17719         0         1
     17721     17720     17722         0         1
     17724     17723     17725         0         1
     17727     17726     17728         0         1
     17730     17729     17731         0         1
     17733     17732     17734         0         1
     17736     17735     17737         0         1
     17739     17738     17740         0         1
     17742     17741     17743         0         1
     17745     17744     17746         0         1
     17748     17747     17749         0         1
     17751     17750     17752         0         1
     17754     17753     17755         0         1
     17757     17756     17758         0         1
     17760     17759     17761         0         1
     17763     17762     17764         0         1
     17766     17765     17767         0         1
     17769     17768     17770         0         1
     17772     17771     17773         0         1
     17775     17774     17776         0         1
     17778     17777     17779         0         1
     17781     17780     17782         0         1
     17784     17783     17785         0         1
     17787     17786     17788         0         1
     17790     17789     17791         0         1
     17793     17792     17794         0         1
     17796     17795     17797         0         1
     17799     17798     17800         0         1
     17802     17801     17803         0         1
     17805     17804     17806         0         1
     17808     17807     17809         0         1
     17811     17810     17812         0         1
     17814     17813     17815         0         1
     17817     17816     17818         0         1
     17820     17819     17821         0         1
     17823     17822     17824         0         1
     17826     17825     17827         0         1
     17829     17828     17830         0         1
     17832     17831     17833         0         1
     17835     17834     17836         0         1
     17838     17837     17839         0         1
     17841     17840     17842         0         1
     17844     17843     17845         0         1
     17847     17846     17848         0         1
     17850     17849     17851         0         1
     17853     17852     17854         0         1
     17856     17855     17857         0         1
     17859     17858     17860         0         1
     17862     17861     17863         0         1
     17865     17864     17866         0         1
     17868     17867     17869         0         1
     17871     17870     17872         0         1
     17874     17873     17875         0         1
     17877     17876     17878         0         1
     17880     17879     17881         0         1
     17883     17882     17884         0         1
     17886     17885     17887         0         1
     17889     17888     17890         0         1
     17892     17891     17893         0         1
     17895     17894     17896         0         1
     17898     17897     17899         0         1
     17901     17900     17902         0         1
     17904     17903     17905         0         1
     17907     17906     17908         0         1
     17910     17909     17911         0         1
     17913     17912     17914         0         1
     17916     17915     17917         0         1
     17919     17918     17920         0         1
     17922     17921     17923         0         1
     17925     17924     17926         0         1
     17928     17927     17929         0         1
     17931     17930     17932         0         1
     17934     17933     17935         0         1
     17937     17936     17938         0         1
     17940     17939     17941         0         1
     17943     17942     17944         0         1
     17946     17945     17947         0         1
     17949     17948     17950         0         1
     17952     17951     17953         0         1
     17955     17954     17956         0         1
     17958     17957     17959         0         1
     17961     17960     17962         0         1
     17964     17963     17965         0         1
     17967     17966     17968         0         1
     17970     17969     17971         0         1
     17973     17972     17974         0         1
     17976     17975     17977         0         1
     17979     17978     17980         0         1
     17982     17981     17983         0         1
     17985     17984     17986         0         1
     17988     17987     17989         0         1
     17991     17990     17992         0         1
     17994     17993     17995         0         1
     17997     17996     17998         0         1
     18000     17999     18001         0         1
     18003     18002     18004         0         1
     18006     18005     18007         0         1
     18009     18008     18010         0         1
     18012     18011     18013         0         1
     18015     18014     18016         0         1
     18018     18017     18019         0         1
     18021     18020     18022         0         1
     18024     18023     18025         0         1
     18027     18026     18028         0         1
     18030     18029     18031         0         1
     18033     18032     18034         0         1
     18036     18035     18037         0         1
     18039     18038     18040         0         1
     18042     18041     18043         0         1
     18045     18044     18046         0         1
     18048     18047     18049         0         1
     18051     18050     18052         0         1
     18054     18053     18055         0         1
     18057     18056     18058         0         1
     18060     18059     18061         0         1
     18063     18062     18064         0         1
     18066     18065     18067         0         1
     18069     18068     18070         0         1
     18072     18071     18073         0         1
     18075     18074     18076         0         1
     18078     18077     18079         0         1
     18081     18080     18082         0         1
     18084     18083     18085         0         1
     18087     18086     18088         0         1
     18090     18089     18091         0         1
     18093     18092     18094         0         1
     18096     18095     18097         0         1
     18099     18098     18100         0         1
     18102     18101     18103         0         1
     18105     18104     18106         0         1
     18108     18107     18109         0         1
     18111     18110     18112         0         1
     18114     18113     18115         0         1
     18117     18116     18118         0         1
     18120     18119     18121         0         1
     18123     18122     18124         0         1
     18126     18125     18127         0         1
     18129     18128     18130         0         1
     18132     18131     18133         0         1
     18135     18134     18136         0         1
     18138     18137     18139         0         1
     18141     18140     18142         0         1
     18144     18143     18145         0         1
     18147     18146     18148         0         1
     18150     18149     18151         0         1
     18153     18152     18154         0         1
     18156     18155     18157         0         1
     18159     18158     18160         0         1
     18162     18161     18163         0         1
     18165     18164     18166         0         1
     18168     18167     18169         0         1
     18171     18170     18172         0         1
     18174     18173     18175         0         1
     18177     18176     18178         0         1
     18180     18179     18181         0         1
     18183     18182     18184         0         1
     18186     18185     18187         0         1
     18189     18188     18190         0         1
     18192     18191     18193         0         1
     18195     18194     18196         0         1
     18198     18197     18199         0         1
     18201     18200     18202         0         1
     18204     18203     18205         0         1
     18207     18206     18208         0         1
     18210     18209     18211         0         1
     18213     18212     18214         0         1
     18216     18215     18217         0         1
     18219     18218     18220         0         1
     18222     18221     18223         0         1
     18225     18224     18226         0         1
     18228     18227     18229         0         1
     18231     18230     18232         0         1
     18234     18233     18235         0         1
     18237     18236     18238         0         1
     18240     18239     18241         0         1
     18243     18242     18244         0         1
     18246     18245     18247         0         1
     18249     18248     18250         0         1
     18252     18251     18253         0         1
     18255     18254     18256         0         1
     18258     18257     18259         0         1
     18261     18260     18262         0         1
     18264     18263     18265         0         1
     18267     18266     18268         0         1
     18270     18269     18271         0         1
     18273     18272     18274         0         1
     18276     18275     18277         0         1
     18279     18278     18280         0         1
     18282     18281     18283         0         1
     18285     18284     18286         0         1
     18288     18287     18289         0         1
     18291     18290     18292         0         1
     18294     18293     18295         0         1
     18297     18296     18298         0         1
     18300     18299     18301         0         1
     18303     18302     18304         0         1
     18306     18305     18307         0         1
     18309     18308     18310         0         1
     18312     18311     18313         0         1
     18315     18314     18316         0         1
     18318     18317     18319         0         1
     18321     18320     18322         0         1
     18324     18323     18325         0         1
     18327     18326     18328         0         1
     18330     18329     18331         0         1
     18333     18332     18334         0         1
     18336     18335     18337         0         1
     18339     18338     18340         0         1
     18342     18341     18343         0         1
     18345     18344     18346         0         1
     18348     18347     18349         0         1
     18351     18350     18352         0         1
     18354     18353     18355         0         1
     18357     18356     18358         0         1
     18360     18359     18361         0         1
     18363     18362     18364         0         1
     18366     18365     18367         0         1
     18369     18368     18370         0         1
     18372     18371     18373         0         1
     18375     18374     18376         0         1
     18378     18377     18379         0         1
     18381     18380     18382         0         1
     18384     18383     18385         0         1
     18387     18386     18388         0         1
     18390     18389     18391         0         1
     18393     18392     18394         0         1
     18396     18395     18397         0         1
     18399     18398     18400         0         1
     18402     18401     18403         0         1
     18405     18404     18406         0         1
     18408     18407     18409         0         1
     18411     18410     18412         0         1
     18414     18413     18415         0         1
     18417     18416     18418         0         1
     18420     18419     18421         0         1
     18423     18422     18424         0         1
     18426     18425     18427         0         1
     18429     18428     18430         0         1
     18432     18431     18433         0         1
     18435     18434     18436         0         1
     18438     18437     18439         0         1
     18441     18440     18442         0         1
     18444     18443     18445         0         1
     18447     18446     18448         0         1
     18450     18449     18451         0         1
     18453     18452     18454         0         1
     18456     18455     18457         0         1
     18459     18458     18460         0         1
     18462     18461     18463         0         1
     18465     18464     18466         0         1
     18468     18467     18469         0         1
     18471     18470     18472         0         1
     18474     18473     18475         0         1
     18477     18476     18478         0         1
     18480     18479     18481         0         1
     18483     18482     18484         0         1
     18486     18485     18487         0         1
     18489     18488     18490         0         1
     18492     18491     18493         0         1
     18495     18494     18496         0         1
     18498     18497     18499         0         1
     18501     18500     18502         0         1
     18504     18503     18505         0         1
     18507     18506     18508         0         1
     18510     18509     18511         0         1
     18513     18512     18514         0         1
     18516     18515     18517         0         1
     18519     18518     18520         0         1
     18522     18521     18523         0         1
     18525     18524     18526         0         1
     18528     18527     18529         0         1
     18531     18530     18532         0         1
     18534     18533     18535         0         1
     18537     18536     18538         0         1
     18540     18539     18541         0         1
     18543     18542     18544         0         1
     18546     18545     18547         0         1
     18549     18548     18550         0         1
     18552     18551     18553         0         1
     18555     18554     18556         0         1
     18558     18557     18559         0         1
     18561     18560     18562         0         1
     18564     18563     18565         0         1
     18567     18566     18568         0         1
     18570     18569     18571         0         1
     18573     18572     18574         0         1
     18576     18575     18577         0         1
     18579     18578     18580         0         1
     18582     18581     18583         0         1
     18585     18584     18586         0         1
     18588     18587     18589         0         1
     18591     18590     18592         0         1
     18594     18593     18595         0         1
     18597     18596     18598         0         1
     18600     18599     18601         0         1
     18603     18602     18604         0         1
     18606     18605     18607         0         1
     18609     18608     18610         0         1
     18612     18611     18613         0         1
     18615     18614     18616         0         1
     18618     18617     18619         0         1
     18621     18620     18622         0         1
     18624     18623     18625         0         1
     18627     18626     18628         0         1
     18630     18629     18631         0         1
     18633     18632     18634         0         1
     18636     18635     18637         0         1
     18639     18638     18640         0         1
     18642     18641     18643         0         1
     18645     18644     18646         0         1
     18648     18647     18649         0         1
     18651     18650     18652         0         1
     18654     18653     18655         0         1
     18657     18656     18658         0         1
     18660     18659     18661         0         1
     18663     18662     18664         0         1
     18666     18665     18667         0         1
     18669     18668     18670         0         1
     18672     18671     18673         0         1
     18675     18674     18676         0         1
     18678     18677     18679         0         1
     18681     18680     18682         0         1
     18684     18683     18685         0         1
     18687     18686     18688         0         1
     18690     18689     18691         0         1
     18693     18692     18694         0         1
     18696     18695     18697         0         1
     18699     18698     18700         0         1
     18702     18701     18703         0         1
     18705     18704     18706         0         1
     18708     18707     18709         0         1
     18711     18710     18712         0         1
     18714     18713     18715         0         1
     18717     18716     18718         0         1
     18720     18719     18721         0         1
     18723     18722     18724         0         1
     18726     18725     18727         0         1
     18729     18728     18730         0         1
     18732     18731     18733         0         1
     18735     18734     18736         0         1
     18738     18737     18739         0         1
     18741     18740     18742         0         1
     18744     18743     18745         0         1
     18747     18746     18748         0         1
     18750     18749     18751         0         1
     18753     18752     18754         0         1
     18756     18755     18757         0         1
     18759     18758     18760         0         1
     18762     18761     18763         0         1
     18765     18764     18766         0         1
     18768     18767     18769         0         1
     18771     18770     18772         0         1
     18774     18773     18775         0         1
     18777     18776     18778         0         1
     18780     18779     18781         0         1
     18783     18782     18784         0         1
     18786     18785     18787         0         1
     18789     18788     18790         0         1
     18792     18791     18793         0         1
     18795     18794     18796         0         1
     18798     18797     18799         0         1
     18801     18800     18802         0         1
     18804     18803     18805         0         1
     18807     18806     18808         0         1
     18810     18809     18811         0         1
     18813     18812     18814         0         1
     18816     18815     18817         0         1
     18819     18818     18820         0         1
     18822     18821     18823         0         1
     18825     18824     18826         0         1
     18828     18827     18829         0         1
     18831     18830     18832         0         1
     18834     18833     18835         0         1
     18837     18836     18838         0         1
     18840     18839     18841         0         1
     18843     18842     18844         0         1
     18846     18845     18847         0         1
     18849     18848     18850         0         1
     18852     18851     18853         0         1
     18855     18854     18856         0         1
     18858     18857     18859         0         1
     18861     18860     18862         0         1
     18864     18863     18865         0         1
     18867     18866     18868         0         1
     18870     18869     18871         0         1
     18873     18872     18874         0         1
     18876     18875     18877         0         1
     18879     18878     18880         0         1
     18882     18881     18883         0         1
     18885     18884     18886         0         1
     18888     18887     18889         0         1
     18891     18890     18892         0         1
     18894     18893     18895         0         1
     18897     18896     18898         0         1
     18900     18899     18901         0         1
     18903     18902     18904         0         1
     18906     18905     18907         0         1
     18909     18908     18910         0         1
     18912     18911     18913         0         1
     18915     18914     18916         0         1
     18918     18917     18919         0         1
     18921     18920     18922         0         1
     18924     18923     18925         0         1
     18927     18926     18928         0         1
     18930     18929     18931         0         1
     18933     18932     18934         0         1
     18936     18935     18937         0         1
     18939     18938     18940         0         1
     18942     18941     18943         0         1
     18945     18944     18946         0         1
     18948     18947     18949         0         1
     18951     18950     18952         0         1
     18954     18953     18955         0         1
     18957     18956     18958         0         1
     18960     18959     18961         0         1
     18963     18962     18964         0         1
     18966     18965     18967         0         1
     18969     18968     18970         0         1
     18972     18971     18973         0         1
     18975     18974     18976         0         1
     18978     18977     18979         0         1
     18981     18980     18982         0         1
     18984     18983     18985         0         1
     18987     18986     18988         0         1
     18990     18989     18991         0         1
     18993     18992     18994         0         1
     18996     18995     18997         0         1
     18999     18998     19000         0         1
     19002     19001     19003         0         1
     19005     19004     19006         0         1
     19008     19007     19009         0         1
     19011     19010     19012         0         1
     19014     19013     19015         0         1
     19017     19016     19018         0         1
     19020     19019     19021         0         1
     19023     19022     19024         0         1
     19026     19025     19027         0         1
     19029     19028     19030         0         1
     19032     19031     19033         0         1
     19035     19034     19036         0         1
     19038     19037     19039         0         1
     19041     19040     19042         0         1
     19044     19043     19045         0         1
     19047     19046     19048         0         1
     19050     19049     19051         0         1
     19053     19052     19054         0         1
     19056     19055     19057         0         1
     19059     19058     19060         0         1
     19062     19061     19063         0         1
     19065     19064     19066         0         1
     19068     19067     19069         0         1
     19071     19070     19072         0         1
     19074     19073     19075         0         1
     19077     19076     19078         0         1
     19080     19079     19081         0         1
     19083     19082     19084         0         1
     19086     19085     19087         0         1
     19089     19088     19090         0         1
     19092     19091     19093         0         1
     19095     19094     19096         0         1
     19098     19097     19099         0         1
     19101     19100     19102         0         1
     19104     19103     19105         0         1
     19107     19106     19108         0         1
     19110     19109     19111         0         1
     19113     19112     19114         0         1
     19116     19115     19117         0         1
     19119     19118     19120         0         1
     19122     19121     19123         0         1
     19125     19124     19126         0         1
     19128     19127     19129         0         1
     19131     19130     19132         0         1
     19134     19133     19135         0         1
     19137     19136     19138         0         1
     19140     19139     19141         0         1
     19143     19142     19144         0         1
     19146     19145     19147         0         1
     19149     19148     19150         0         1
     19152     19151     19153         0         1
     19155     19154     19156         0         1
     19158     19157     19159         0         1
     19161     19160     19162         0         1
     19164     19163     19165         0         1
     19167     19166     19168         0         1
     19170     19169     19171         0         1
     19173     19172     19174         0         1
     19176     19175     19177         0         1
     19179     19178     19180         0         1
     19182     19181     19183         0         1
     19185     19184     19186         0         1
     19188     19187     19189         0         1
     19191     19190     19192         0         1
     19194     19193     19195         0         1
     19197     19196     19198         0         1
     19200     19199     19201         0         1
     19203     19202     19204         0         1
     19206     19205     19207         0         1
     19209     19208     19210         0         1
     19212     19211     19213         0         1
     19215     19214     19216         0         1
     19218     19217     19219         0         1
     19221     19220     19222         0         1
     19224     19223     19225         0         1
     19227     19226     19228         0         1
     19230     19229     19231         0         1
     19233     19232     19234         0         1
     19236     19235     19237         0         1
     19239     19238     19240         0         1
     19242     19241     19243         0         1
     19245     19244     19246         0         1
     19248     19247     19249         0         1
     19251     19250     19252         0         1
     19254     19253     19255         0         1
     19257     19256     19258         0         1
     19260     19259     19261         0         1
     19263     19262     19264         0         1
     19266     19265     19267         0         1
     19269     19268     19270         0         1
     19272     19271     19273         0         1
     19275     19274     19276         0         1
     19278     19277     19279         0         1
     19281     19280     19282         0         1
     19284     19283     19285         0         1
     19287     19286     19288         0         1
     19290     19289     19291         0         1
     19293     19292     19294         0         1
     19296     19295     19297         0         1
     19299     19298     19300         0         1
     19302     19301     19303         0         1
     19305     19304     19306         0         1
     19308     19307     19309         0         1
     19311     19310     19312         0         1
     19314     19313     19315         0         1
     19317     19316     19318         0         1
     19320     19319     19321         0         1
     19323     19322     19324         0         1
     19326     19325     19327         0         1
     19329     19328     19330         0         1
     19332     19331     19333         0         1
     19335     19334     19336         0         1
     19338     19337     19339         0         1
     19341     19340     19342         0         1
     19344     19343     19345         0         1
     19347     19346     19348         0         1
     19350     19349     19351         0         1
     19353     19352     19354         0         1
     19356     19355     19357         0         1
     19359     19358     19360         0         1
     19362     19361     19363         0         1
     19365     19364     19366         0         1
     19368     19367     19369         0         1
     19371     19370     19372         0         1
     19374     19373     19375         0         1
     19377     19376     19378         0         1
     19380     19379     19381         0         1
     19383     19382     19384         0         1
     19386     19385     19387         0         1
     19389     19388     19390         0         1
     19392     19391     19393         0         1
     19395     19394     19396         0         1
     19398     19397     19399         0         1
     19401     19400     19402         0         1
     19404     19403     19405         0         1
     19407     19406     19408         0         1
     19410     19409     19411         0         1
     19413     19412     19414         0         1
     19416     19415     19417         0         1
     19419     19418     19420         0         1
     19422     19421     19423         0         1
     19425     19424     19426         0         1
     19428     19427     19429         0         1
     19431     19430     19432         0         1
     19434     19433     19435         0         1
     19437     19436     19438         0         1
     19440     19439     19441         0         1
     19443     19442     19444         0         1
     19446     19445     19447         0         1
     19449     19448     19450         0         1
     19452     19451     19453         0         1
     19455     19454     19456         0         1
     19458     19457     19459         0         1
     19461     19460     19462         0         1
     19464     19463     19465         0         1
     19467     19466     19468         0         1
     19470     19469     19471         0         1
     19473     19472     19474         0         1
     19476     19475     19477         0         1
     19479     19478     19480         0         1
     19482     19481     19483         0         1
     19485     19484     19486         0         1
     19488     19487     19489         0         1
     19491     19490     19492         0         1
     19494     19493     19495         0         1
     19497     19496     19498         0         1
     19500     19499     19501         0         1
     19503     19502     19504         0         1
     19506     19505     19507         0         1
     19509     19508     19510         0         1
     19512     19511     19513         0         1
     19515     19514     19516         0         1
     19518     19517     19519         0         1
     19521     19520     19522         0         1
     19524     19523     19525         0         1
     19527     19526     19528         0         1
     19530     19529     19531         0         1
     19533     19532     19534         0         1
     19536     19535     19537         0         1
     19539     19538     19540         0         1
     19542     19541     19543         0         1
     19545     19544     19546         0         1
     19548     19547     19549         0         1
     19551     19550     19552         0         1
     19554     19553     19555         0         1
     19557     19556     19558         0         1
     19560     19559     19561         0         1
     19563     19562     19564         0         1
     19566     19565     19567         0         1
     19569     19568     19570         0         1
     19572     19571     19573         0         1
     19575     19574     19576         0         1
     19578     19577     19579         0         1
     19581     19580     19582         0         1
     19584     19583     19585         0         1
     19587     19586     19588         0         1
     19590     19589     19591         0         1
     19593     19592     19594         0         1
     19596     19595     19597         0         1
     19599     19598     19600         0         1
     19602     19601     19603         0         1
     19605     19604     19606         0         1
     19608     19607     19609         0         1
     19611     19610     19612         0         1
     19614     19613     19615         0         1
     19617     19616     19618         0         1
     19620     19619     19621         0         1
     19623     19622     19624         0         1
     19626     19625     19627         0         1
     19629     19628     19630         0         1
     19632     19631     19633         0         1
     19635     19634     19636         0         1
     19638     19637     19639         0         1
     19641     19640     19642         0         1
     19644     19643     19645         0         1
     19647     19646     19648         0         1
     19650     19649     19651         0         1
     19653     19652     19654         0         1
     19656     19655     19657         0         1
     19659     19658     19660         0         1
     19662     19661     19663         0         1
     19665     19664     19666         0         1
     19668     19667     19669         0         1
     19671     19670     19672         0         1
     19674     19673     19675         0         1
     19677     19676     19678         0         1
     19680     19679     19681         0         1
     19683     19682     19684         0         1
     19686     19685     19687         0         1
     19689     19688     19690         0         1
     19692     19691     19693         0         1
     19695     19694     19696         0         1
     19698     19697     19699         0         1
     19701     19700     19702         0         1
     19704     19703     19705         0         1
     19707     19706     19708         0         1
     19710     19709     19711         0         1
     19713     19712     19714         0         1
     19716     19715     19717         0         1
     19719     19718     19720         0         1
     19722     19721     19723         0         1
     19725     19724     19726         0         1
     19728     19727     19729         0         1
     19731     19730     19732         0         1
     19734     19733     19735         0         1
     19737     19736     19738         0         1
     19740     19739     19741         0         1
     19743     19742     19744         0         1
     19746     19745     19747         0         1
     19749     19748     19750         0         1
     19752     19751     19753         0         1
     19755     19754     19756         0         1
     19758     19757     19759         0         1
     19761     19760     19762         0         1
     19764     19763     19765         0         1
     19767     19766     19768         0         1
     19770     19769     19771         0         1
     19773     19772     19774         0         1
     19776     19775     19777         0         1
     19779     19778     19780         0         1
     19782     19781     19783         0         1
     19785     19784     19786         0         1
     19788     19787     19789         0         1
     19791     19790     19792         0         1
     19794     19793     19795         0         1
     19797     19796     19798         0         1
     19800     19799     19801         0         1
     19803     19802     19804         0         1
     19806     19805     19807         0         1
     19809     19808     19810         0         1
     19812     19811     19813         0         1
     19815     19814     19816         0         1
     19818     19817     19819         0         1
     19821     19820     19822         0         1
     19824     19823     19825         0         1
     19827     19826     19828         0         1
     19830     19829     19831         0         1
     19833     19832     19834         0         1
     19836     19835     19837         0         1
     19839     19838     19840         0         1
     19842     19841     19843         0         1
     19845     19844     19846         0         1
     19848     19847     19849         0         1
     19851     19850     19852         0         1
     19854     19853     19855         0         1
     19857     19856     19858         0         1
     19860     19859     19861         0         1
     19863     19862     19864         0         1
     19866     19865     19867         0         1
     19869     19868     19870         0         1
     19872     19871     19873         0         1
     19875     19874     19876         0         1
     19878     19877     19879         0         1
     19881     19880     19882         0         1
     19884     19883     19885         0         1
     19887     19886     19888         0         1
     19890     19889     19891         0         1
     19893     19892     19894         0         1
     19896     19895     19897         0         1
     19899     19898     19900         0         1
     19902     19901     19903         0         1
     19905     19904     19906         0         1
     19908     19907     19909         0         1
     19911     19910     19912         0         1
     19914     19913     19915         0         1
     19917     19916     19918         0         1
     19920     19919     19921         0         1
     19923     19922     19924         0         1
     19926     19925     19927         0         1
     19929     19928     19930         0         1
     19932     19931     19933         0         1
     19935     19934     19936         0         1
     19938     19937     19939         0         1
     19941     19940     19942         0         1
     19944     19943     19945         0         1
     19947     19946     19948         0         1
     19950     19949     19951         0         1
     19953     19952     19954         0         1
     19956     19955     19957         0         1
     19959     19958     19960         0         1
     19962     19961     19963         0         1
     19965     19964     19966         0         1
     19968     19967     19969         0         1
     19971     19970     19972         0         1
     19974     19973     19975         0         1
     19977     19976     19978         0         1
     19980     19979     19981         0         1
     19983     19982     19984         0         1
     19986     19985     19987         0         1
     19989     19988     19990         0         1
     19992     19991     19993         0         1
     19995     19994     19996         0         1
     19998     19997     19999         0         1
     20001     20000     20002         0         1
     20004     20003     20005         0         1
     20007     20006     20008         0         1
     20010     20009     20011         0         1
     20013     20012     20014         0         1
     20016     20015     20017         0         1
     20019     20018     20020         0         1
     20022     20021     20023         0         1
     20025     20024     20026         0         1
     20028     20027     20029         0         1
     20031     20030     20032         0         1
     20034     20033     20035         0         1
     20037     20036     20038         0         1
     20040     20039     20041         0         1
     20043     20042     20044         0         1
     20046     20045     20047         0         1
     20049     20048     20050         0         1
     20052     20051     20053         0         1
     20055     20054     20056         0         1
     20058     20057     20059         0         1
     20061     20060     20062         0         1
     20064     20063     20065         0         1
     20067     20066     20068         0         1
     20070     20069     20071         0         1
     20073     20072     20074         0         1
     20076     20075     20077         0         1
     20079     20078     20080         0         1
     20082     20081     20083         0         1
     20085     20084     20086         0         1
     20088     20087     20089         0         1
     20091     20090     20092         0         1
     20094     20093     20095         0         1
     20097     20096     20098         0         1
     20100     20099     20101         0         1
     20103     20102     20104         0         1
     20106     20105     20107         0         1
     20109     20108     20110         0         1
     20112     20111     20113         0         1
     20115     20114     20116         0         1
     20118     20117     20119         0         1
     20121     20120     20122         0         1
     20124     20123     20125         0         1
     20127     20126     20128         0         1
     20130     20129     20131         0         1
     20133     20132     20134         0         1
     20136     20135     20137         0         1
     20139     20138     20140         0         1
     20142     20141     20143         0         1
     20145     20144     20146         0         1
     20148     20147     20149         0         1
     20151     20150     20152         0         1
     20154     20153     20155         0         1
     20157     20156     20158         0         1
     20160     20159     20161         0         1
     20163     20162     20164         0         1
     20166     20165     20167         0         1
     20169     20168     20170         0         1
     20172     20171     20173         0         1
     20175     20174     20176         0         1
     20178     20177     20179         0         1
     20181     20180     20182         0         1
     20184     20183     20185         0         1
     20187     20186     20188         0         1
     20190     20189     20191         0         1
     20193     20192     20194         0         1
     20196     20195     20197         0         1
     20199     20198     20200         0         1
     20202     20201     20203         0         1
     20205     20204     20206         0         1
     20208     20207     20209         0         1
     20211     20210     20212         0         1
     20214     20213     20215         0         1
     20217     20216     20218         0         1
     20220     20219     20221         0         1
     20223     20222     20224         0         1
     20226     20225     20227         0         1
     20229     20228     20230         0         1
     20232     20231     20233         0         1
     20235     20234     20236         0         1
     20238     20237     20239         0         1
     20241     20240     20242         0         1
     20244     20243     20245         0         1
     20247     20246     20248         0         1
     20250     20249     20251         0         1
     20253     20252     20254         0         1
     20256     20255     20257         0         1
     20259     20258     20260         0         1
     20262     20261     20263         0         1
     20265     20264     20266         0         1
     20268     20267     20269         0         1
     20271     20270     20272         0         1
     20274     20273     20275         0         1
     20277     20276     20278         0         1
     20280     20279     20281         0         1
     20283     20282     20284         0         1
     20286     20285     20287         0         1
     20289     20288     20290         0         1
     20292     20291     20293         0         1
     20295     20294     20296         0         1
     20298     20297     20299         0         1
     20301     20300     20302         0         1
     20304     20303     20305         0         1
     20307     20306     20308         0         1
     20310     20309     20311         0         1
     20313     20312     20314         0         1
     20316     20315     20317         0         1
     20319     20318     20320         0         1
     20322     20321     20323         0         1
     20325     20324     20326         0         1
     20328     20327     20329         0         1
     20331     20330     20332         0         1
     20334     20333     20335         0         1
     20337     20336     20338         0         1
     20340     20339     20341         0         1
     20343     20342     20344         0         1
     20346     20345     20347         0         1
     20349     20348     20350         0         1
     20352     20351     20353         0         1
     20355     20354     20356         0         1
     20358     20357     20359         0         1
     20361     20360     20362         0         1
     20364     20363     20365         0         1
     20367     20366     20368         0         1
     20370     20369     20371         0         1
     20373     20372     20374         0         1
     20376     20375     20377         0         1
     20379     20378     20380         0         1
     20382     20381     20383         0         1
     20385     20384     20386         0         1
     20388     20387     20389         0         1
     20391     20390     20392         0         1
     20394     20393     20395         0         1
     20397     20396     20398         0         1
     20400     20399     20401         0         1
     20403     20402     20404         0         1
     20406     20405     20407         0         1
     20409     20408     20410         0         1
     20412     20411     20413         0         1
     20415     20414     20416         0         1
     20418     20417     20419         0         1
     20421     20420     20422         0         1
     20424     20423     20425         0         1
     20427     20426     20428         0         1
     20430     20429     20431         0         1
     20433     20432     20434         0         1
     20436     20435     20437         0         1
     20439     20438     20440         0         1
     20442     20441     20443         0         1
     20445     20444     20446         0         1
     20448     20447     20449         0         1
     20451     20450     20452         0         1
     20454     20453     20455         0         1
     20457     20456     20458         0         1
     20460     20459     20461         0         1
     20463     20462     20464         0         1
     20466     20465     20467         0         1
     20469     20468     20470         0         1
     20472     20471     20473         0         1
     20475     20474     20476         0         1
     20478     20477     20479         0         1
     20481     20480     20482         0         1
     20484     20483     20485         0         1
     20487     20486     20488         0         1
     20490     20489     20491         0         1
     20493     20492     20494         0         1
     20496     20495     20497         0         1
     20499     20498     20500         0         1
     20502     20501     20503         0         1
     20505     20504     20506         0         1
     20508     20507     20509         0         1
     20511     20510     20512         0         1
     20514     20513     20515         0         1
     20517     20516     20518         0         1
     20520     20519     20521         0         1
     20523     20522     20524         0         1
     20526     20525     20527         0         1
     20529     20528     20530         0         1
     20532     20531     20533         0         1
     20535     20534     20536         0         1
     20538     20537     20539         0         1
     20541     20540     20542         0         1
     20544     20543     20545         0         1
     20547     20546     20548         0         1
     20550     20549     20551         0         1
     20553     20552     20554         0         1
     20556     20555     20557         0         1
     20559     20558     20560         0         1
     20562     20561     20563         0         1
     20565     20564     20566         0         1
     20568     20567     20569         0         1
     20571     20570     20572         0         1
     20574     20573     20575         0         1
     20577     20576     20578         0         1
     20580     20579     20581         0         1
     20583     20582     20584         0         1
     20586     20585     20587         0         1
     20589     20588     20590         0         1
     20592     20591     20593         0         1
     20595     20594     20596         0         1
     20598     20597     20599         0         1
     20601     20600     20602         0         1
     20604     20603     20605         0         1
     20607     20606     20608         0         1
     20610     20609     20611         0         1
     20613     20612     20614         0         1
     20616     20615     20617         0         1
     20619     20618     20620         0         1
     20622     20621     20623         0         1
     20625     20624     20626         0         1
     20628     20627     20629         0         1
     20631     20630     20632         0         1
     20634     20633     20635         0         1
     20637     20636     20638         0         1
     20640     20639     20641         0         1
     20643     20642     20644         0         1
     20646     20645     20647         0         1
     20649     20648     20650         0         1
     20652     20651     20653         0         1
     20655     20654     20656         0         1
     20658     20657     20659         0         1
     20661     20660     20662         0         1
     20664     20663     20665         0         1
     20667     20666     20668         0         1
     20670     20669     20671         0         1
     20673     20672     20674         0         1
     20676     20675     20677         0         1
     20679     20678     20680         0         1
     20682     20681     20683         0         1
     20685     20684     20686         0         1
     20688     20687     20689         0         1
     20691     20690     20692         0         1
     20694     20693     20695         0         1
     20697     20696     20698         0         1
     20700     20699     20701         0         1
     20703     20702     20704         0         1
     20706     20705     20707         0         1
     20709     20708     20710         0         1
     20712     20711     20713         0         1
     20715     20714     20716         0         1
     20718     20717     20719         0         1
     20721     20720     20722         0         1
     20724     20723     20725         0         1
     20727     20726     20728         0         1
     20730     20729     20731         0         1
     20733     20732     20734         0         1
     20736     20735     20737         0         1
     20739     20738     20740         0         1
     20742     20741     20743         0         1
     20745     20744     20746         0         1
     20748     20747     20749         0         1
     20751     20750     20752         0         1
     20754     20753     20755         0         1
     20757     20756     20758         0         1
     20760     20759     20761         0         1
     20763     20762     20764         0         1
     20766     20765     20767         0         1
     20769     20768     20770         0         1
     20772     20771     20773         0         1
     20775     20774     20776         0         1
     20778     20777     20779         0         1
     20781     20780     20782         0         1
     20784     20783     20785         0         1
     20787     20786     20788         0         1
     20790     20789     20791         0         1
     20793     20792     20794         0         1
     20796     20795     20797         0         1
     20799     20798     20800         0         1
     20802     20801     20803         0         1
     20805     20804     20806         0         1
     20808     20807     20809         0         1
     20811     20810     20812         0         1
     20814     20813     20815         0         1
     20817     20816     20818         0         1
     20820     20819     20821         0         1
     20823     20822     20824         0         1
     20826     20825     20827         0         1
     20829     20828     20830         0         1
     20832     20831     20833         0         1
     20835     20834     20836         0         1
     20838     20837     20839         0         1
     20841     20840     20842         0         1
     20844     20843     20845         0         1
     20847     20846     20848         0         1
     20850     20849     20851         0         1
     20853     20852     20854         0         1
     20856     20855     20857         0         1
     20859     20858     20860         0         1
     20862     20861     20863         0         1
     20865     20864     20866         0         1
     20868     20867     20869         0         1
     20871     20870     20872         0         1
     20874     20873     20875         0         1
     20877     20876     20878         0         1
     20880     20879     20881         0         1
     20883     20882     20884         0         1
     20886     20885     20887         0         1
     20889     20888     20890         0         1
     20892     20891     20893         0         1
     20895     20894     20896         0         1
     20898     20897     20899         0         1
     20901     20900     20902         0         1
     20904     20903     20905         0         1
     20907     20906     20908         0         1
     20910     20909     20911         0         1
     20913     20912     20914         0         1
     20916     20915     20917         0         1
     20919     20918     20920         0         1
     20922     20921     20923         0         1
     20925     20924     20926         0         1
     20928     20927     20929         0         1
     20931     20930     20932         0         1
     20934     20933     20935         0         1
     20937     20936     20938         0         1
     20940     20939     20941         0         1
     20943     20942     20944         0         1
     20946     20945     20947         0         1
     20949     20948     20950         0         1
     20952     20951     20953         0         1
     20955     20954     20956         0         1
     20958     20957     20959         0         1
     20961     20960     20962         0         1
     20964     20963     20965         0         1
     20967     20966     20968         0         1
     20970     20969     20971         0         1
     20973     20972     20974         0         1
     20976     20975     20977         0         1
     20979     20978     20980         0         1
     20982     20981     20983         0         1
     20985     20984     20986         0         1
     20988     20987     20989         0         1
     20991     20990     20992         0         1
     20994     20993     20995         0         1
     20997     20996     20998         0         1
     21000     20999     21001         0         1
     21003     21002     21004         0         1
     21006     21005     21007         0         1
     21009     21008     21010         0         1
     21012     21011     21013         0         1
     21015     21014     21016         0         1
     21018     21017     21019         0         1
     21021     21020     21022         0         1
     21024     21023     21025         0         1
     21027     21026     21028         0         1
     21030     21029     21031         0         1
     21033     21032     21034         0         1
     21036     21035     21037         0         1
     21039     21038     21040         0         1
     21042     21041     21043         0         1
     21045     21044     21046         0         1
     21048     21047     21049         0         1
     21051     21050     21052         0         1
     21054     21053     21055         0         1
     21057     21056     21058         0         1
     21060     21059     21061         0         1
     21063     21062     21064         0         1
     21066     21065     21067         0         1
     21069     21068     21070         0         1
     21072     21071     21073         0         1
     21075     21074     21076         0         1
     21078     21077     21079         0         1
     21081     21080     21082         0         1
     21084     21083     21085         0         1
     21087     21086     21088         0         1
     21090     21089     21091         0         1
     21093     21092     21094         0         1
     21096     21095     21097         0         1
     21099     21098     21100         0         1
     21102     21101     21103         0         1
     21105     21104     21106         0         1
     21108     21107     21109         0         1
     21111     21110     21112         0         1
     21114     21113     21115         0         1
     21117     21116     21118         0         1
     21120     21119     21121         0         1
     21123     21122     21124         0         1
     21126     21125     21127         0         1
     21129     21128     21130         0         1
     21132     21131     21133         0         1
     21135     21134     21136         0         1
     21138     21137     21139         0         1
     21141     21140     21142         0         1
     21144     21143     21145         0         1
     21147     21146     21148         0         1
     21150     21149     21151         0         1
     21153     21152     21154         0         1
     21156     21155     21157         0         1
     21159     21158     21160         0         1
     21162     21161     21163         0         1
     21165     21164     21166         0         1
     21168     21167     21169         0         1
     21171     21170     21172         0         1
     21174     21173     21175         0         1
     21177     21176     21178         0         1
     21180     21179     21181         0         1
     21183     21182     21184         0         1
     21186     21185     21187         0         1
     21189     21188     21190         0         1
     21192     21191     21193         0         1
     21195     21194     21196         0         1
     21198     21197     21199         0         1
     21201     21200     21202         0         1
     21204     21203     21205         0         1
     21207     21206     21208         0         1
     21210     21209     21211         0         1
     21213     21212     21214         0         1
     21216     21215     21217         0         1
     21219     21218     21220         0         1
     21222     21221     21223         0         1
     21225     21224     21226         0         1
     21228     21227     21229         0         1
     21231     21230     21232         0         1
     21234     21233     21235         0         1
     21237     21236     21238         0         1
     21240     21239     21241         0         1
     21243     21242     21244         0         1
     21246     21245     21247         0         1
     21249     21248     21250         0         1
     21252     21251     21253         0         1
     21255     21254     21256         0         1
     21258     21257     21259         0         1
     21261     21260     21262         0         1
     21264     21263     21265         0         1
     21267     21266     21268         0         1
     21270     21269     21271         0         1
     21273     21272     21274         0         1
     21276     21275     21277         0         1
     21279     21278     21280         0         1
     21282     21281     21283         0         1
     21285     21284     21286         0         1
     21288     21287     21289         0         1
     21291     21290     21292         0         1
     21294     21293     21295         0         1
     21297     21296     21298         0         1
     21300     21299     21301         0         1
     21303     21302     21304         0         1
     21306     21305     21307         0         1
     21309     21308     21310         0         1
     21312     21311     21313         0         1
     21315     21314     21316         0         1
     21318     21317     21319         0         1
     21321     21320     21322         0         1
     21324     21323     21325         0         1
     21327     21326     21328         0         1
     21330     21329     21331         0         1
     21333     21332     21334         0         1
     21336     21335     21337         0         1
     21339     21338     21340         0         1
     21342     21341     21343         0         1
     21345     21344     21346         0         1
     21348     21347     21349         0         1
     21351     21350     21352         0         1
     21354     21353     21355         0         1
     21357     21356     21358         0         1
     21360     21359     21361         0         1
     21363     21362     21364         0         1
     21366     21365     21367         0         1
     21369     21368     21370         0         1
     21372     21371     21373         0         1
     21375     21374     21376         0         1
     21378     21377     21379         0         1
     21381     21380     21382         0         1
     21384     21383     21385         0         1
     21387     21386     21388         0         1
     21390     21389     21391         0         1
     21393     21392     21394         0         1
     21396     21395     21397         0         1
     21399     21398     21400         0         1
     21402     21401     21403         0         1
     21405     21404     21406         0         1
     21408     21407     21409         0         1
     21411     21410     21412         0         1
     21414     21413     21415         0         1
     21417     21416     21418         0         1
     21420     21419     21421         0         1
     21423     21422     21424         0         1
     21426     21425     21427         0         1
     21429     21428     21430         0         1
     21432     21431     21433         0         1
     21435     21434     21436         0         1
     21438     21437     21439         0         1
     21441     21440     21442         0         1
     21444     21443     21445         0         1
     21447     21446     21448         0         1
     21450     21449     21451         0         1
     21453     21452     21454         0         1
     21456     21455     21457         0         1
     21459     21458     21460         0         1
     21462     21461     21463         0         1
     21465     21464     21466         0         1
     21468     21467     21469         0         1
     21471     21470     21472         0         1
     21474     21473     21475         0         1
     21477     21476     21478         0         1
     21480     21479     21481         0         1
     21483     21482     21484         0         1
     21486     21485     21487         0         1
     21489     21488     21490         0         1
     21492     21491     21493         0         1
     21495     21494     21496         0         1
     21498     21497     21499         0         1
     21501     21500     21502         0         1
     21504     21503     21505         0         1
     21507     21506     21508         0         1
     21510     21509     21511         0         1
     21513     21512     21514         0         1
     21516     21515     21517         0         1
     21519     21518     21520         0         1
     21522     21521     21523         0         1
     21525     21524     21526         0         1
     21528     21527     21529         0         1
     21531     21530     21532         0         1
     21534     21533     21535         0         1
     21537     21536     21538         0         1
     21540     21539     21541         0         1
     21543     21542     21544         0         1
     21546     21545     21547         0         1
     21549     21548     21550         0         1
     21552     21551     21553         0         1
     21555     21554     21556         0         1
     21558     21557     21559         0         1
     21561     21560     21562         0         1
     21564     21563     21565         0         1
     21567     21566     21568         0         1
     21570     21569     21571         0         1
     21573     21572     21574         0         1
     21576     21575     21577         0         1
     21579     21578     21580         0         1
     21582     21581     21583         0         1
     21585     21584     21586         0         1
     21588     21587     21589         0         1
     21591     21590     21592         0         1
     21594     21593     21595         0         1
     21597     21596     21598         0         1
     21600     21599     21601         0         1
     21603     21602     21604         0         1
     21606     21605     21607         0         1
     21609     21608     21610         0         1
     21612     21611     21613         0         1
     21615     21614     21616         0         1
     21618     21617     21619         0         1
     21621     21620     21622         0         1
     21624     21623     21625         0         1
     21627     21626     21628         0         1
     21630     21629     21631         0         1
     21633     21632     21634         0         1
     21636     21635     21637         0         1
     21639     21638     21640         0         1
     21642     21641     21643         0         1
     21645     21644     21646         0         1
     21648     21647     21649         0         1
     21651     21650     21652         0         1
     21654     21653     21655         0         1
     21657     21656     21658         0         1
     21660     21659     21661         0         1
     21663     21662     21664         0         1
     21666     21665     21667         0         1
     21669     21668     21670         0         1
     21672     21671     21673         0         1
     21675     21674     21676         0         1
     21678     21677     21679         0         1
     21681     21680     21682         0         1
     21684     21683     21685         0         1
     21687     21686     21688         0         1
     21690     21689     21691         0         1
     21693     21692     21694         0         1
     21696     21695     21697         0         1
     21699     21698     21700         0         1
     21702     21701     21703         0         1
     21705     21704     21706         0         1
     21708     21707     21709         0         1
     21711     21710     21712         0         1
     21714     21713     21715         0         1
     21717     21716     21718         0         1
     21720     21719     21721         0         1
     21723     21722     21724         0         1
     21726     21725     21727         0         1
     21729     21728     21730         0         1
     21732     21731     21733         0         1
     21735     21734     21736         0         1
     21738     21737     21739         0         1
     21741     21740     21742         0         1
     21744     21743     21745         0         1
     21747     21746     21748         0         1
     21750     21749     21751         0         1
     21753     21752     21754         0         1
     21756     21755     21757         0         1
     21759     21758     21760         0         1
     21762     21761     21763         0         1
     21765     21764     21766         0         1
     21768     21767     21769         0         1
     21771     21770     21772         0         1
     21774     21773     21775         0         1
     21777     21776     21778         0         1
     21780     21779     21781         0         1
     21783     21782     21784         0         1
     21786     21785     21787         0         1
     21789     21788     21790         0         1
     21792     21791     21793         0         1
     21795     21794     21796         0         1
     21798     21797     21799         0         1
     21801     21800     21802         0         1
     21804     21803     21805         0         1
     21807     21806     21808         0         1
     21810     21809     21811         0         1
     21813     21812     21814         0         1
     21816     21815     21817         0         1
     21819     21818     21820         0         1
     21822     21821     21823         0         1
     21825     21824     21826         0         1
     21828     21827     21829         0         1
     21831     21830     21832         0         1
     21834     21833     21835         0         1
     21837     21836     21838         0         1
     21840     21839     21841         0         1
     21843     21842     21844         0         1
     21846     21845     21847         0         1
     21849     21848     21850         0         1
     21852     21851     21853         0         1
     21855     21854     21856         0         1
     21858     21857     21859         0         1
     21861     21860     21862         0         1
     21864     21863     21865         0         1
     21867     21866     21868         0         1
     21870     21869     21871         0         1
     21873     21872     21874         0         1
     21876     21875     21877         0         1
     21879     21878     21880         0         1
     21882     21881     21883         0         1
     21885     21884     21886         0         1
     21888     21887     21889         0         1
     21891     21890     21892         0         1
     21894     21893     21895         0         1
     21897     21896     21898         0         1
     21900     21899     21901         0         1
     21903     21902     21904         0         1
     21906     21905     21907         0         1
     21909     21908     21910         0         1
     21912     21911     21913         0         1
     21915     21914     21916         0         1
     21918     21917     21919         0         1
     21921     21920     21922         0         1
     21924     21923     21925         0         1
     21927     21926     21928         0         1
     21930     21929     21931         0         1
     21933     21932     21934         0         1
     21936     21935     21937         0         1
     21939     21938     21940         0         1
     21942     21941     21943         0         1
     21945     21944     21946         0         1
     21948     21947     21949         0         1
     21951     21950     21952         0         1
     21954     21953     21955         0         1
     21957     21956     21958         0         1
     21960     21959     21961         0         1
     21963     21962     21964         0         1
     21966     21965     21967         0         1
     21969     21968     21970         0         1
     21972     21971     21973         0         1
     21975     21974     21976         0         1
     21978     21977     21979         0         1
     21981     21980     21982         0         1
     21984     21983     21985         0         1
     21987     21986     21988         0         1
     21990     21989     21991         0         1
     21993     21992     21994         0         1
     21996     21995     21997         0         1
     21999     21998     22000         0         1
     22002     22001     22003         0         1
     22005     22004     22006         0         1
     22008     22007     22009         0         1
     22011     22010     22012         0         1
     22014     22013     22015         0         1
     22017     22016     22018         0         1
     22020     22019     22021         0         1
     22023     22022     22024         0         1
     22026     22025     22027         0         1
     22029     22028     22030         0         1
     22032     22031     22033         0         1
     22035     22034     22036         0         1
     22038     22037     22039         0         1
     22041     22040     22042         0         1
     22044     22043     22045         0         1
     22047     22046     22048         0         1
     22050     22049     22051         0         1
     22053     22052     22054         0         1
     22056     22055     22057         0         1
     22059     22058     22060         0         1
     22062     22061     22063         0         1
     22065     22064     22066         0         1
     22068     22067     22069         0         1
     22071     22070     22072         0         1
     22074     22073     22075         0         1
     22077     22076     22078         0         1
     22080     22079     22081         0         1
     22083     22082     22084         0         1
     22086     22085     22087         0         1
     22089     22088     22090         0         1
     22092     22091     22093         0         1
     22095     22094     22096         0         1
     22098     22097     22099         0         1
     22101     22100     22102         0         1
     22104     22103     22105         0         1
     22107     22106     22108         0         1
     22110     22109     22111         0         1
     22113     22112     22114         0         1
     22116     22115     22117         0         1
     22119     22118     22120         0         1
     22122     22121     22123         0         1
     22125     22124     22126         0         1
     22128     22127     22129         0         1
     22131     22130     22132         0         1
     22134     22133     22135         0         1
     22137     22136     22138         0         1
     22140     22139     22141         0         1
     22143     22142     22144         0         1
     22146     22145     22147         0         1
     22149     22148     22150         0         1
     22152     22151     22153         0         1
     22155     22154     22156         0         1
     22158     22157     22159         0         1
     22161     22160     22162         0         1
     22164     22163     22165         0         1
     22167     22166     22168         0         1
     22170     22169     22171         0         1
     22173     22172     22174         0         1
     22176     22175     22177         0         1
     22179     22178     22180         0         1
     22182     22181     22183         0         1
     22185     22184     22186         0         1
     22188     22187     22189         0         1
     22191     22190     22192         0         1
     22194     22193     22195         0         1
     22197     22196     22198         0         1
     22200     22199     22201         0         1
     22203     22202     22204         0         1
     22206     22205     22207         0         1
     22209     22208     22210         0         1
     22212     22211     22213         0         1
     22215     22214     22216         0         1
     22218     22217     22219         0         1
     22221     22220     22222         0         1
     22224     22223     22225         0         1
     22227     22226     22228         0         1
     22230     22229     22231         0         1
     22233     22232     22234         0         1
     22236     22235     22237         0         1
     22239     22238     22240         0         1
     22242     22241     22243         0         1
     22245     22244     22246         0         1
     22248     22247     22249         0         1
     22251     22250     22252         0         1
     22254     22253     22255         0         1
     22257     22256     22258         0         1
     22260     22259     22261         0         1
     22263     22262     22264         0         1
     22266     22265     22267         0         1
     22269     22268     22270         0         1
     22272     22271     22273         0         1
     22275     22274     22276         0         1
     22278     22277     22279         0         1
     22281     22280     22282         0         1
     22284     22283     22285         0         1
     22287     22286     22288         0         1
     22290     22289     22291         0         1
     22293     22292     22294         0         1
     22296     22295     22297         0         1
     22299     22298     22300         0         1
     22302     22301     22303         0         1
     22305     22304     22306         0         1
     22308     22307     22309         0         1
     22311     22310     22312         0         1
     22314     22313     22315         0         1
     22317     22316     22318         0         1
     22320     22319     22321         0         1
     22323     22322     22324         0         1
     22326     22325     22327         0         1
     22329     22328     22330         0         1
     22332     22331     22333         0         1
     22335     22334     22336         0         1
     22338     22337     22339         0         1
     22341     22340     22342         0         1
     22344     22343     22345         0         1
     22347     22346     22348         0         1
     22350     22349     22351         0         1
     22353     22352     22354         0         1
     22356     22355     22357         0         1
     22359     22358     22360         0         1
     22362     22361     22363         0         1
     22365     22364     22366         0         1
     22368     22367     22369         0         1
     22371     22370     22372         0         1
     22374     22373     22375         0         1
     22377     22376     22378         0         1
     22380     22379     22381         0         1
     22383     22382     22384         0         1
     22386     22385     22387         0         1
     22389     22388     22390         0         1
     22392     22391     22393         0         1
     22395     22394     22396         0         1
     22398     22397     22399         0         1
     22401     22400     22402         0         1
     22404     22403     22405         0         1
     22407     22406     22408         0         1
     22410     22409     22411         0         1
     22413     22412     22414         0         1
     22416     22415     22417         0         1
     22419     22418     22420         0         1
     22422     22421     22423         0         1
     22425     22424     22426         0         1
     22428     22427     22429         0         1
     22431     22430     22432         0         1
     22434     22433     22435         0         1
     22437     22436     22438         0         1
     22440     22439     22441         0         1
     22443     22442     22444         0         1
     22446     22445     22447         0         1
     22449     22448     22450         0         1
     22452     22451     22453         0         1
     22455     22454     22456         0         1
     22458     22457     22459         0         1
     22461     22460     22462         0         1
     22464     22463     22465         0         1
     22467     22466     22468         0         1
     22470     22469     22471         0         1
     22473     22472     22474         0         1
     22476     22475     22477         0         1
     22479     22478     22480         0         1
     22482     22481     22483         0         1
     22485     22484     22486         0         1
     22488     22487     22489         0         1
     22491     22490     22492         0         1
     22494     22493     22495         0         1
     22497     22496     22498         0         1
     22500     22499     22501         0         1
     22503     22502     22504         0         1
     22506     22505     22507         0         1
     22509     22508     22510         0         1
     22512     22511     22513         0         1
     22515     22514     22516         0         1
     22518     22517     22519         0         1
     22521     22520     22522         0         1
     22524     22523     22525         0         1
     22527     22526     22528         0         1
     22530     22529     22531         0         1
     22533     22532     22534         0         1
     22536     22535     22537         0         1
     22539     22538     22540         0         1
     22542     22541     22543         0         1
     22545     22544     22546         0         1
     22548     22547     22549         0         1
     22551     22550     22552         0         1
     22554     22553     22555         0         1
     22557     22556     22558         0         1
     22560     22559     22561         0         1
     22563     22562     22564         0         1
     22566     22565     22567         0         1
     22569     22568     22570         0         1
     22572     22571     22573         0         1
     22575     22574     22576         0         1
     22578     22577     22579         0         1
     22581     22580     22582         0         1
     22584     22583     22585         0         1
     22587     22586     22588         0         1
     22590     22589     22591         0         1
     22593     22592     22594         0         1
     22596     22595     22597         0         1
     22599     22598     22600         0         1
     22602     22601     22603         0         1
     22605     22604     22606         0         1
     22608     22607     22609         0         1
     22611     22610     22612         0         1
     22614     22613     22615         0         1
     22617     22616     22618         0         1
     22620     22619     22621         0         1
     22623     22622     22624         0         1
     22626     22625     22627         0         1
     22629     22628     22630         0         1
     22632     22631     22633         0         1
     22635     22634     22636         0         1
     22638     22637     22639         0         1
     22641     22640     22642         0         1
     22644     22643     22645         0         1
     22647     22646     22648         0         1
     22650     22649     22651         0         1
     22653     22652     22654         0         1
     22656     22655     22657         0         1
     22659     22658     22660         0         1
     22662     22661     22663         0         1
     22665     22664     22666         0         1
     22668     22667     22669         0         1
     22671     22670     22672         0         1
     22674     22673     22675         0         1
     22677     22676     22678         0         1
     22680     22679     22681         0         1
     22683     22682     22684         0         1
     22686     22685     22687         0         1
     22689     22688     22690         0         1
     22692     22691     22693         0         1
     22695     22694     22696         0         1
     22698     22697     22699         0         1
     22701     22700     22702         0         1
     22704     22703     22705         0         1
     22707     22706     22708         0         1
     22710     22709     22711         0         1
     22713     22712     22714         0         1
     22716     22715     22717         0         1
     22719     22718     22720         0         1
     22722     22721     22723         0         1
     22725     22724     22726         0         1
     22728     22727     22729         0         1
     22731     22730     22732         0         1
     22734     22733     22735         0         1
     22737     22736     22738         0         1
     22740     22739     22741         0         1
     22743     22742     22744         0         1
     22746     22745     22747         0         1
     22749     22748     22750         0         1
     22752     22751     22753         0         1
     22755     22754     22756         0         1
     22758     22757     22759         0         1
     22761     22760     22762         0         1
     22764     22763     22765         0         1
     22767     22766     22768         0         1
     22770     22769     22771         0         1
     22773     22772     22774         0         1
     22776     22775     22777         0         1
     22779     22778     22780         0         1
     22782     22781     22783         0         1
     22785     22784     22786         0         1
     22788     22787     22789         0         1
     22791     22790     22792         0         1
     22794     22793     22795         0         1
     22797     22796     22798         0         1
     22800     22799     22801         0         1
     22803     22802     22804         0         1
     22806     22805     22807         0         1
     22809     22808     22810         0         1
     22812     22811     22813         0         1
     22815     22814     22816         0         1
     22818     22817     22819         0         1
     22821     22820     22822         0         1
     22824     22823     22825         0         1
     22827     22826     22828         0         1
     22830     22829     22831         0         1
     22833     22832     22834         0         1
     22836     22835     22837         0         1
     22839     22838     22840         0         1
     22842     22841     22843         0         1
     22845     22844     22846         0         1
     22848     22847     22849         0         1
     22851     22850     22852         0         1
     22854     22853     22855         0         1
     22857     22856     22858         0         1
     22860     22859     22861         0         1
     22863     22862     22864         0         1
     22866     22865     22867         0         1
     22869     22868     22870         0         1
     22872     22871     22873         0         1
     22875     22874     22876         0         1
     22878     22877     22879         0         1
     22881     22880     22882         0         1
     22884     22883     22885         0         1
     22887     22886     22888         0         1
     22890     22889     22891         0         1
     22893     22892     22894         0         1
     22896     22895     22897         0         1
     22899     22898     22900         0         1
     22902     22901     22903         0         1
     22905     22904     22906         0         1
     22908     22907     22909         0         1
     22911     22910     22912         0         1
     22914     22913     22915         0         1
     22917     22916     22918         0         1
     22920     22919     22921         0         1
     22923     22922     22924         0         1
     22926     22925     22927         0         1
     22929     22928     22930         0         1
     22932     22931     22933         0         1
     22935     22934     22936         0         1
     22938     22937     22939         0         1
     22941     22940     22942         0         1
     22944     22943     22945         0         1
     22947     22946     22948         0         1
     22950     22949     22951         0         1
     22953     22952     22954         0         1
     22956     22955     22957         0         1
     22959     22958     22960         0         1
     22962     22961     22963         0         1
     22965     22964     22966         0         1
     22968     22967     22969         0         1
     22971     22970     22972         0         1
     22974     22973     22975         0         1
     22977     22976     22978         0         1
     22980     22979     22981         0         1
     22983     22982     22984         0         1
     22986     22985     22987         0         1
     22989     22988     22990         0         1
     22992     22991     22993         0         1
     22995     22994     22996         0         1
     22998     22997     22999         0         1
     23001     23000     23002         0         1
     23004     23003     23005         0         1
     23007     23006     23008         0         1
     23010     23009     23011         0         1
     23013     23012     23014         0         1
     23016     23015     23017         0         1
     23019     23018     23020         0         1
     23022     23021     23023         0         1
     23025     23024     23026         0         1
     23028     23027     23029         0         1
     23031     23030     23032         0         1
     23034     23033     23035         0         1
     23037     23036     23038         0         1
     23040     23039     23041         0         1
     23043     23042     23044         0         1
     23046     23045     23047         0         1
     23049     23048     23050         0         1
     23052     23051     23053         0         1
     23055     23054     23056         0         1
     23058     23057     23059         0         1
     23061     23060     23062         0         1
     23064     23063     23065         0         1
     23067     23066     23068         0         1
     23070     23069     23071         0         1
     23073     23072     23074         0         1
     23076     23075     23077         0         1
     23079     23078     23080         0         1
     23082     23081     23083         0         1
     23085     23084     23086         0         1
     23088     23087     23089         0         1
     23091     23090     23092         0         1
     23094     23093     23095         0         1
     23097     23096     23098         0         1
     23100     23099     23101         0         1
     23103     23102     23104         0         1
     23106     23105     23107         0         1
     23109     23108     23110         0         1
     23112     23111     23113         0         1
     23115     23114     23116         0         1
     23118     23117     23119         0         1
     23121     23120     23122         0         1
     23124     23123     23125         0         1
     23127     23126     23128         0         1
     23130     23129     23131         0         1
     23133     23132     23134         0         1
     23136     23135     23137         0         1
     23139     23138     23140         0         1
     23142     23141     23143         0         1
     23145     23144     23146         0         1
     23148     23147     23149         0         1
     23151     23150     23152         0         1
     23154     23153     23155         0         1
     23157     23156     23158         0         1
     23160     23159     23161         0         1
     23163     23162     23164         0         1
     23166     23165     23167         0         1
     23169     23168     23170         0         1
     23172     23171     23173         0         1
     23175     23174     23176         0         1
     23178     23177     23179         0         1
     23181     23180     23182         0         1
     23184     23183     23185         0         1
     23187     23186     23188         0         1
     23190     23189     23191         0         1
     23193     23192     23194         0         1
     23196     23195     23197         0         1
     23199     23198     23200         0         1
     23202     23201     23203         0         1
     23205     23204     23206         0         1
     23208     23207     23209         0         1
     23211     23210     23212         0         1
     23214     23213     23215         0         1
     23217     23216     23218         0         1
     23220     23219     23221         0         1
     23223     23222     23224         0         1
     23226     23225     23227         0         1
     23229     23228     23230         0         1
     23232     23231     23233         0         1
     23235     23234     23236         0         1
     23238     23237     23239         0         1
     23241     23240     23242         0         1
     23244     23243     23245         0         1
     23247     23246     23248         0         1
     23250     23249     23251         0         1
     23253     23252     23254         0         1
     23256     23255     23257         0         1
     23259     23258     23260         0         1
     23262     23261     23263         0         1
     23265     23264     23266         0         1
     23268     23267     23269         0         1
     23271     23270     23272         0         1
     23274     23273     23275         0         1
     23277     23276     23278         0         1
     23280     23279     23281         0         1
     23283     23282     23284         0         1
     23286     23285     23287         0         1
     23289     23288     23290         0         1
     23292     23291     23293         0         1
     23295     23294     23296         0         1
     23298     23297     23299         0         1
     23301     23300     23302         0         1
     23304     23303     23305         0         1
     23307     23306     23308         0         1
     23310     23309     23311         0         1
     23313     23312     23314         0         1
     23316     23315     23317         0         1
     23319     23318     23320         0         1
     23322     23321     23323         0         1
     23325     23324     23326         0         1
     23328     23327     23329         0         1
     23331     23330     23332         0         1
     23334     23333     23335         0         1
     23337     23336     23338         0         1
     23340     23339     23341         0         1
     23343     23342     23344         0         1
     23346     23345     23347         0         1
     23349     23348     23350         0         1
     23352     23351     23353         0         1
     23355     23354     23356         0         1
     23358     23357     23359         0         1
     23361     23360     23362         0         1
     23364     23363     23365         0         1
     23367     23366     23368         0         1
     23370     23369     23371         0         1
     23373     23372     23374         0         1
     23376     23375     23377         0         1
     23379     23378     23380         0         1
     23382     23381     23383         0         1
     23385     23384     23386         0         1
     23388     23387     23389         0         1
     23391     23390     23392         0         1
     23394     23393     23395         0         1
     23397     23396     23398         0         1
     23400     23399     23401         0         1
     23403     23402     23404         0         1
     23406     23405     23407         0         1
     23409     23408     23410         0         1
     23412     23411     23413         0         1
     23415     23414     23416         0         1
     23418     23417     23419         0         1
     23421     23420     23422         0         1
     23424     23423     23425         0         1
     23427     23426     23428         0         1
     23430     23429     23431         0         1
     23433     23432     23434         0         1
     23436     23435     23437         0         1
     23439     23438     23440         0         1
     23442     23441     23443         0         1
     23445     23444     23446         0         1
     23448     23447     23449         0         1
     23451     23450     23452         0         1
     23454     23453     23455         0         1
     23457     23456     23458         0         1
     23460     23459     23461         0         1
     23463     23462     23464         0         1
     23466     23465     23467         0         1
     23469     23468     23470         0         1
     23472     23471     23473         0         1
     23475     23474     23476         0         1
     23478     23477     23479         0         1
     23481     23480     23482         0         1
     23484     23483     23485         0         1
     23487     23486     23488         0         1
     23490     23489     23491         0         1
     23493     23492     23494         0         1
     23496     23495     23497         0         1
     23499     23498     23500         0         1
     23502     23501     23503         0         1
     23505     23504     23506         0         1
     23508     23507     23509         0         1
     23511     23510     23512         0         1
     23514     23513     23515         0         1
     23517     23516     23518         0         1
     23520     23519     23521         0         1
     23523     23522     23524         0         1
     23526     23525     23527         0         1
     23529     23528     23530         0         1
     23532     23531     23533         0         1
     23535     23534     23536         0         1
     23538     23537     23539         0         1
     23541     23540     23542         0         1
     23544     23543     23545         0         1
     23547     23546     23548         0         1
     23550     23549     23551         0         1
     23553     23552     23554         0         1
     23556     23555     23557         0         1
     23559     23558     23560         0         1
     23562     23561     23563         0         1
     23565     23564     23566         0         1
     23568     23567     23569         0         1
     23571     23570     23572         0         1
     23574     23573     23575         0         1
     23577     23576     23578         0         1
     23580     23579     23581         0         1
     23583     23582     23584         0         1
     23586     23585     23587         0         1
     23589     23588     23590         0         1
     23592     23591     23593         0         1
     23595     23594     23596         0         1
     23598     23597     23599         0         1
     23601     23600     23602         0         1
     23604     23603     23605         0         1
     23607     23606     23608         0         1
     23610     23609     23611         0         1
     23613     23612     23614         0         1
     23616     23615     23617         0         1
     23619     23618     23620         0         1
     23622     23621     23623         0         1
     23625     23624     23626         0         1
     23628     23627     23629         0         1
     23631     23630     23632         0         1
     23634     23633     23635         0         1
     23637     23636     23638         0         1
     23640     23639     23641         0         1
     23643     23642     23644         0         1
     23646     23645     23647         0         1
     23649     23648     23650         0         1
     23652     23651     23653         0         1
     23655     23654     23656         0         1
     23658     23657     23659         0         1
     23661     23660     23662         0         1
     23664     23663     23665         0         1
     23667     23666     23668         0         1
     23670     23669     23671         0         1
     23673     23672     23674         0         1
     23676     23675     23677         0         1
     23679     23678     23680         0         1
     23682     23681     23683         0         1
     23685     23684     23686         0         1
     23688     23687     23689         0         1
     23691     23690     23692         0         1
     23694     23693     23695         0         1
     23697     23696     23698         0         1
     23700     23699     23701         0         1
     23703     23702     23704         0         1
     23706     23705     23707         0         1
     23709     23708     23710         0         1
     23712     23711     23713         0         1
     23715     23714     23716         0         1
     23718     23717     23719         0         1
     23721     23720     23722         0         1
     23724     23723     23725         0         1
     23727     23726     23728         0         1
     23730     23729     23731         0         1
     23733     23732     23734         0         1
     23736     23735     23737         0         1
     23739     23738     23740         0         1
     23742     23741     23743         0         1
     23745     23744     23746         0         1
     23748     23747     23749         0         1
     23751     23750     23752         0         1
     23754     23753     23755         0         1
     23757     23756     23758         0         1
     23760     23759     23761         0         1
     23763     23762     23764         0         1
     23766     23765     23767         0         1
     23769     23768     23770         0         1
     23772     23771     23773         0         1
     23775     23774     23776         0         1
     23778     23777     23779         0         1
     23781     23780     23782         0         1
     23784     23783     23785         0         1
     23787     23786     23788         0         1
     23790     23789     23791         0         1
     23793     23792     23794         0         1
     23796     23795     23797         0         1
     23799     23798     23800         0         1
     23802     23801     23803         0         1
     23805     23804     23806         0         1
     23808     23807     23809         0         1
     23811     23810     23812         0         1
     23814     23813     23815         0         1
     23817     23816     23818         0         1
     23820     23819     23821         0         1
     23823     23822     23824         0         1
     23826     23825     23827         0         1
     23829     23828     23830         0         1
     23832     23831     23833         0         1
     23835     23834     23836         0         1
     23838     23837     23839         0         1
     23841     23840     23842         0         1
     23844     23843     23845         0         1
     23847     23846     23848         0         1
     23850     23849     23851         0         1
     23853     23852     23854         0         1
     23856     23855     23857         0         1
     23859     23858     23860         0         1
     23862     23861     23863         0         1
     23865     23864     23866         0         1
     23868     23867     23869         0         1
     23871     23870     23872         0         1
     23874     23873     23875         0         1
     23877     23876     23878         0         1
     23880     23879     23881         0         1
     23883     23882     23884         0         1
     23886     23885     23887         0         1
     23889     23888     23890         0         1
     23892     23891     23893         0         1
     23895     23894     23896         0         1
     23898     23897     23899         0         1
     23901     23900     23902         0         1
     23904     23903     23905         0         1
     23907     23906     23908         0         1
     23910     23909     23911         0         1
     23913     23912     23914         0         1
     23916     23915     23917         0         1
     23919     23918     23920         0         1
     23922     23921     23923         0         1
     23925     23924     23926         0         1
     23928     23927     23929         0         1
     23931     23930     23932         0         1
     23934     23933     23935         0         1
     23937     23936     23938         0         1
     23940     23939     23941         0         1
     23943     23942     23944         0         1
     23946     23945     23947         0         1
     23949     23948     23950         0         1
     23952     23951     23953         0         1
     23955     23954     23956         0         1
     23958     23957     23959         0         1
     23961     23960     23962         0         1
     23964     23963     23965         0         1
     23967     23966     23968         0         1
     23970     23969     23971         0         1
     23973     23972     23974         0         1
     23976     23975     23977         0         1
     23979     23978     23980         0         1
     23982     23981     23983         0         1
     23985     23984     23986         0         1
     23988     23987     23989         0         1
     23991     23990     23992         0         1
     23994     23993     23995         0         1
     23997     23996     23998         0         1
     24000     23999     24001         0         1
     24003     24002     24004         0         1
     24006     24005     24007         0         1
     24009     24008     24010         0         1
     24012     24011     24013         0         1
     24015     24014     24016         0         1
     24018     24017     24019         0         1
     24021     24020     24022         0         1
     24024     24023     24025         0         1
     24027     24026     24028         0         1
     24030     24029     24031         0         1
     24033     24032     24034         0         1
     24036     24035     24037         0         1
     24039     24038     24040         0         1
     24042     24041     24043         0         1
     24045     24044     24046         0         1
     24048     24047     24049         0         1
     24051     24050     24052         0         1
     24054     24053     24055         0         1
     24057     24056     24058         0         1
     24060     24059     24061         0         1
     24063     24062     24064         0         1
     24066     24065     24067         0         1
     24069     24068     24070         0         1
     24072     24071     24073         0         1
     24075     24074     24076         0         1
     24078     24077     24079         0         1
     24081     24080     24082         0         1
     24084     24083     24085         0         1
     24087     24086     24088         0         1
     24090     24089     24091         0         1
     24093     24092     24094         0         1
     24096     24095     24097         0         1
     24099     24098     24100         0         1
     24102     24101     24103         0         1
     24105     24104     24106         0         1
     24108     24107     24109         0         1
     24111     24110     24112         0         1
     24114     24113     24115         0         1
     24117     24116     24118         0         1
     24120     24119     24121         0         1
     24123     24122     24124         0         1
     24126     24125     24127         0         1
     24129     24128     24130         0         1
     24132     24131     24133         0         1
     24135     24134     24136         0         1
     24138     24137     24139         0         1
     24141     24140     24142         0         1
     24144     24143     24145         0         1
     24147     24146     24148         0         1
     24150     24149     24151         0         1
     24153     24152     24154         0         1
     24156     24155     24157         0         1
     24159     24158     24160         0         1
     24162     24161     24163         0         1
     24165     24164     24166         0         1
     24168     24167     24169         0         1
     24171     24170     24172         0         1
     24174     24173     24175         0         1
     24177     24176     24178         0         1
     24180     24179     24181         0         1
     24183     24182     24184         0         1
     24186     24185     24187         0         1
     24189     24188     24190         0         1
     24192     24191     24193         0         1
     24195     24194     24196         0         1
     24198     24197     24199         0         1
     24201     24200     24202         0         1
     24204     24203     24205         0         1
     24207     24206     24208         0         1
     24210     24209     24211         0         1
     24213     24212     24214         0         1
     24216     24215     24217         0         1
     24219     24218     24220         0         1
     24222     24221     24223         0         1
     24225     24224     24226         0         1
     24228     24227     24229         0         1
     24231     24230     24232         0         1
     24234     24233     24235         0         1
     24237     24236     24238         0         1
     24240     24239     24241         0         1
     24243     24242     24244         0         1
     24246     24245     24247         0         1
     24249     24248     24250         0         1
     24252     24251     24253         0         1
     24255     24254     24256         0         1
     24258     24257     24259         0         1
     24261     24260     24262         0         1
     24264     24263     24265         0         1
     24267     24266     24268         0         1
     24270     24269     24271         0         1
     24273     24272     24274         0         1
     24276     24275     24277         0         1
     24279     24278     24280         0         1
     24282     24281     24283         0         1
     24285     24284     24286         0         1
     24288     24287     24289         0         1
     24291     24290     24292         0         1
     24294     24293     24295         0         1
     24297     24296     24298         0         1
     24300     24299     24301         0         1
     24303     24302     24304         0         1
     24306     24305     24307         0         1
     24309     24308     24310         0         1
     24312     24311     24313         0         1
     24315     24314     24316         0         1
     24318     24317     24319         0         1
     24321     24320     24322         0         1
     24324     24323     24325         0         1
     24327     24326     24328         0         1
     24330     24329     24331         0         1
     24333     24332     24334         0         1
     24336     24335     24337         0         1
     24339     24338     24340         0         1
     24342     24341     24343         0         1
     24345     24344     24346         0         1
     24348     24347     24349         0         1
     24351     24350     24352         0         1
     24354     24353     24355         0         1
     24357     24356     24358         0         1
     24360     24359     24361         0         1
     24363     24362     24364         0         1
     24366     24365     24367         0         1
     24369     24368     24370         0         1
     24372     24371     24373         0         1
     24375     24374     24376         0         1
     24378     24377     24379         0         1
     24381     24380     24382         0         1
     24384     24383     24385         0         1
     24387     24386     24388         0         1
     24390     24389     24391         0         1
     24393     24392     24394         0         1
     24396     24395     24397         0         1
     24399     24398     24400         0         1
     24402     24401     24403         0         1
     24405     24404     24406         0         1
     24408     24407     24409         0         1
     24411     24410     24412         0         1
     24414     24413     24415         0         1
     24417     24416     24418         0         1
     24420     24419     24421         0         1
     24423     24422     24424         0         1
     24426     24425     24427         0         1
     24429     24428     24430         0         1
     24432     24431     24433         0         1
     24435     24434     24436         0         1
     24438     24437     24439         0         1
     24441     24440     24442         0         1
     24444     24443     24445         0         1
     24447     24446     24448         0         1
     24450     24449     24451         0         1
     24453     24452     24454         0         1
     24456     24455     24457         0         1
     24459     24458     24460         0         1
     24462     24461     24463         0         1
     24465     24464     24466         0         1
     24468     24467     24469         0         1
     24471     24470     24472         0         1
     24474     24473     24475         0         1
     24477     24476     24478         0         1
     24480     24479     24481         0         1
     24483     24482     24484         0         1
     24486     24485     24487         0         1
     24489     24488     24490         0         1
     24492     24491     24493         0         1
     24495     24494     24496         0         1
     24498     24497     24499         0         1
     24501     24500     24502         0         1
     24504     24503     24505         0         1
     24507     24506     24508         0         1
     24510     24509     24511         0         1
     24513     24512     24514         0         1
     24516     24515     24517         0         1
     24519     24518     24520         0         1
     24522     24521     24523         0         1
     24525     24524     24526         0         1
     24528     24527     24529         0         1
     24531     24530     24532         0         1
     24534     24533     24535         0         1
     24537     24536     24538         0         1
     24540     24539     24541         0         1
     24543     24542     24544         0         1
     24546     24545     24547         0         1
     24549     24548     24550         0         1
     24552     24551     24553         0         1
     24555     24554     24556         0         1
     24558     24557     24559         0         1
     24561     24560     24562         0         1
     24564     24563     24565         0         1
     24567     24566     24568         0         1
     24570     24569     24571         0         1
     24573     24572     24574         0         1
     24576     24575     24577         0         1
     24579     24578     24580         0         1
     24582     24581     24583         0         1
     24585     24584     24586         0         1
     24588     24587     24589         0         1
     24591     24590     24592         0         1
     24594     24593     24595         0         1
     24597     24596     24598         0         1
     24600     24599     24601         0         1
     24603     24602     24604         0         1
     24606     24605     24607         0         1
     24609     24608     24610         0         1
     24612     24611     24613         0         1
     24615     24614     24616         0         1
     24618     24617     24619         0         1
     24621     24620     24622         0         1
     24624     24623     24625         0         1
     24627     24626     24628         0         1
     24630     24629     24631         0         1
     24633     24632     24634         0         1
     24636     24635     24637         0         1
     24639     24638     24640         0         1
     24642     24641     24643         0         1
     24645     24644     24646         0         1
     24648     24647     24649         0         1
     24651     24650     24652         0         1
     24654     24653     24655         0         1
     24657     24656     24658         0         1
     24660     24659     24661         0         1
     24663     24662     24664         0         1
     24666     24665     24667         0         1
     24669     24668     24670         0         1
     24672     24671     24673         0         1
     24675     24674     24676         0         1
     24678     24677     24679         0         1
     24681     24680     24682         0         1
     24684     24683     24685         0         1
     24687     24686     24688         0         1
     24690     24689     24691         0         1
     24693     24692     24694         0         1
     24696     24695     24697         0         1
     24699     24698     24700         0         1
     24702     24701     24703         0         1
     24705     24704     24706         0         1
     24708     24707     24709         0         1
     24711     24710     24712         0         1
     24714     24713     24715         0         1
     24717     24716     24718         0         1
     24720     24719     24721         0         1
     24723     24722     24724         0         1
     24726     24725     24727         0         1
     24729     24728     24730         0         1
     24732     24731     24733         0         1
     24735     24734     24736         0         1
     24738     24737     24739         0         1
     24741     24740     24742         0         1
     24744     24743     24745         0         1
     24747     24746     24748         0         1
     24750     24749     24751         0         1
     24753     24752     24754         0         1
     24756     24755     24757         0         1
     24759     24758     24760         0         1
     24762     24761     24763         0         1
     24765     24764     24766         0         1
     24768     24767     24769         0         1
     24771     24770     24772         0         1
     24774     24773     24775         0         1
     24777     24776     24778         0         1
     24780     24779     24781         0         1
     24783     24782     24784         0         1
     24786     24785     24787         0         1
     24789     24788     24790         0         1
     24792     24791     24793         0         1
     24795     24794     24796         0         1
     24798     24797     24799         0         1
     24801     24800     24802         0         1
     24804     24803     24805         0         1
     24807     24806     24808         0         1
     24810     24809     24811         0         1
     24813     24812     24814         0         1
     24816     24815     24817         0         1
     24819     24818     24820         0         1
     24822     24821     24823         0         1
     24825     24824     24826         0         1
     24828     24827     24829         0         1
     24831     24830     24832         0         1
     24834     24833     24835         0         1
     24837     24836     24838         0         1
     24840     24839     24841         0         1
     24843     24842     24844         0         1
     24846     24845     24847         0         1
     24849     24848     24850         0         1
     24852     24851     24853         0         1
     24855     24854     24856         0         1
     24858     24857     24859         0         1
     24861     24860     24862         0         1
     24864     24863     24865         0         1
     24867     24866     24868         0         1
     24870     24869     24871         0         1
     24873     24872     24874         0         1
     24876     24875     24877         0         1
     24879     24878     24880         0         1
     24882     24881     24883         0         1
     24885     24884     24886         0         1
     24888     24887     24889         0         1
     24891     24890     24892         0         1
     24894     24893     24895         0         1
     24897     24896     24898         0         1
     24900     24899     24901         0         1
     24903     24902     24904         0         1
     24906     24905     24907         0         1
     24909     24908     24910         0         1
     24912     24911     24913         0         1
     24915     24914     24916         0         1
     24918     24917     24919         0         1
     24921     24920     24922         0         1
     24924     24923     24925         0         1
     24927     24926     24928         0         1
     24930     24929     24931         0         1
     24933     24932     24934         0         1
     24936     24935     24937         0         1
     24939     24938     24940         0         1
     24942     24941     24943         0         1
     24945     24944     24946         0         1
     24948     24947     24949         0         1
     24951     24950     24952         0         1
     24954     24953     24955         0         1
     24957     24956     24958         0         1
     24960     24959     24961         0         1
     24963     24962     24964         0         1
     24966     24965     24967         0         1
     24969     24968     24970         0         1
     24972     24971     24973         0         1
     24975     24974     24976         0         1
     24978     24977     24979         0         1
     24981     24980     24982         0         1
     24984     24983     24985         0         1
     24987     24986     24988         0         1
     24990     24989     24991         0         1
     24993     24992     24994         0         1
     24996     24995     24997         0         1
     24999     24998     25000         0         1
     25002     25001     25003         0         1
     25005     25004     25006         0         1
     25008     25007     25009         0         1
     25011     25010     25012         0         1
     25014     25013     25015         0         1
     25017     25016     25018         0         1
     25020     25019     25021         0         1
     25023     25022     25024         0         1
     25026     25025     25027         0         1
     25029     25028     25030         0         1
     25032     25031     25033         0         1
     25035     25034     25036         0         1
     25038     25037     25039         0         1
     25041     25040     25042         0         1
     25044     25043     25045         0         1
     25047     25046     25048         0         1
     25050     25049     25051         0         1
     25053     25052     25054         0         1
     25056     25055     25057         0         1
     25059     25058     25060         0         1
     25062     25061     25063         0         1
     25065     25064     25066         0         1
     25068     25067     25069         0         1
     25071     25070     25072         0         1
     25074     25073     25075         0         1
     25077     25076     25078         0         1
     25080     25079     25081         0         1
     25083     25082     25084         0         1
     25086     25085     25087         0         1
     25089     25088     25090         0         1
     25092     25091     25093         0         1
     25095     25094     25096         0         1
     25098     25097     25099         0         1
     25101     25100     25102         0         1
     25104     25103     25105         0         1
     25107     25106     25108         0         1
     25110     25109     25111         0         1
     25113     25112     25114         0         1
     25116     25115     25117         0         1
     25119     25118     25120         0         1
     25122     25121     25123         0         1
     25125     25124     25126         0         1
     25128     25127     25129         0         1
     25131     25130     25132         0         1
     25134     25133     25135         0         1
     25137     25136     25138         0         1
     25140     25139     25141         0         1
     25143     25142     25144         0         1
     25146     25145     25147         0         1
     25149     25148     25150         0         1
     25152     25151     25153         0         1
     25155     25154     25156         0         1
     25158     25157     25159         0         1
     25161     25160     25162         0         1
     25164     25163     25165         0         1
     25167     25166     25168         0         1
     25170     25169     25171         0         1
     25173     25172     25174         0         1
     25176     25175     25177         0         1
     25179     25178     25180         0         1
     25182     25181     25183         0         1
     25185     25184     25186         0         1
     25188     25187     25189         0         1
     25191     25190     25192         0         1
     25194     25193     25195         0         1
     25197     25196     25198         0         1
     25200     25199     25201         0         1
     25203     25202     25204         0         1
     25206     25205     25207         0         1
     25209     25208     25210         0         1
     25212     25211     25213         0         1
     25215     25214     25216         0         1
     25218     25217     25219         0         1
     25221     25220     25222         0         1
     25224     25223     25225         0         1
     25227     25226     25228         0         1
     25230     25229     25231         0         1
     25233     25232     25234         0         1
     25236     25235     25237         0         1
     25239     25238     25240         0         1
     25242     25241     25243         0         1
     25245     25244     25246         0         1
     25248     25247     25249         0         1
     25251     25250     25252         0         1
     25254     25253     25255         0         1
     25257     25256     25258         0         1
     25260     25259     25261         0         1
     25263     25262     25264         0         1
     25266     25265     25267         0         1
     25269     25268     25270         0         1
     25272     25271     25273         0         1
     25275     25274     25276         0         1
     25278     25277     25279         0         1
     25281     25280     25282         0         1
     25284     25283     25285         0         1
     25287     25286     25288         0         1
     25290     25289     25291         0         1
     25293     25292     25294         0         1
     25296     25295     25297         0         1
     25299     25298     25300         0         1
     25302     25301     25303         0         1
     25305     25304     25306         0         1
     25308     25307     25309         0         1
     25311     25310     25312         0         1
     25314     25313     25315         0         1
     25317     25316     25318         0         1
     25320     25319     25321         0         1
     25323     25322     25324         0         1
     25326     25325     25327         0         1
     25329     25328     25330         0         1
     25332     25331     25333         0         1
     25335     25334     25336         0         1
     25338     25337     25339         0         1
     25341     25340     25342         0         1
     25344     25343     25345         0         1
     25347     25346     25348         0         1
     25350     25349     25351         0         1
     25353     25352     25354         0         1
     25356     25355     25357         0         1
     25359     25358     25360         0         1
     25362     25361     25363         0         1
     25365     25364     25366         0         1
     25368     25367     25369         0         1
     25371     25370     25372         0         1
     25374     25373     25375         0         1
     25377     25376     25378         0         1
     25380     25379     25381         0         1
     25383     25382     25384         0         1
     25386     25385     25387         0         1
     25389     25388     25390         0         1
     25392     25391     25393         0         1
     25395     25394     25396         0         1
     25398     25397     25399         0         1
     25401     25400     25402         0         1
     25404     25403     25405         0         1
     25407     25406     25408         0         1
     25410     25409     25411         0         1
     25413     25412     25414         0         1
     25416     25415     25417         0         1
     25419     25418     25420         0         1
     25422     25421     25423         0         1
     25425     25424     25426         0         1
     25428     25427     25429         0         1
     25431     25430     25432         0         1
     25434     25433     25435         0         1
     25437     25436     25438         0         1
     25440     25439     25441         0         1
     25443     25442     25444         0         1
     25446     25445     25447         0         1
     25449     25448     25450         0         1
     25452     25451     25453         0         1
     25455     25454     25456         0         1
     25458     25457     25459         0         1
     25461     25460     25462         0         1
     25464     25463     25465         0         1
     25467     25466     25468         0         1
     25470     25469     25471         0         1
     25473     25472     25474         0         1
     25476     25475     25477         0         1
     25479     25478     25480         0         1
     25482     25481     25483         0         1
     25485     25484     25486         0         1
     25488     25487     25489         0         1
     25491     25490     25492         0         1
     25494     25493     25495         0         1
     25497     25496     25498         0         1
     25500     25499     25501         0         1
     25503     25502     25504         0         1
     25506     25505     25507         0         1
     25509     25508     25510         0         1
     25512     25511     25513         0         1
     25515     25514     25516         0         1
     25518     25517     25519         0         1
     25521     25520     25522         0         1
     25524     25523     25525         0         1
     25527     25526     25528         0         1
     25530     25529     25531         0         1
     25533     25532     25534         0         1
     25536     25535     25537         0         1
     25539     25538     25540         0         1
     25542     25541     25543         0         1
     25545     25544     25546         0         1
     25548     25547     25549         0         1
     25551     25550     25552         0         1
     25554     25553     25555         0         1
     25557     25556     25558         0         1
     25560     25559     25561         0         1
     25563     25562     25564         0         1
     25566     25565     25567         0         1
     25569     25568     25570         0         1
     25572     25571     25573         0         1
     25575     25574     25576         0         1
     25578     25577     25579         0         1
     25581     25580     25582         0         1
     25584     25583     25585         0         1
     25587     25586     25588         0         1
     25590     25589     25591         0         1
     25593     25592     25594         0         1
     25596     25595     25597         0         1
     25599     25598     25600         0         1
     25602     25601     25603         0         1
     25605     25604     25606         0         1
     25608     25607     25609         0         1
     25611     25610     25612         0         1
     25614     25613     25615         0         1
     25617     25616     25618         0         1
     25620     25619     25621         0         1
     25623     25622     25624         0         1
     25626     25625     25627         0         1
     25629     25628     25630         0         1
     25632     25631     25633         0         1
     25635     25634     25636         0         1
     25638     25637     25639         0         1
     25641     25640     25642         0         1
     25644     25643     25645         0         1
     25647     25646     25648         0         1
     25650     25649     25651         0         1
     25653     25652     25654         0         1
     25656     25655     25657         0         1
     25659     25658     25660         0         1
     25662     25661     25663         0         1
     25665     25664     25666         0         1
     25668     25667     25669         0         1
     25671     25670     25672         0         1
     25674     25673     25675         0         1
     25677     25676     25678         0         1
     25680     25679     25681         0         1
     25683     25682     25684         0         1
     25686     25685     25687         0         1
     25689     25688     25690         0         1
     25692     25691     25693         0         1
     25695     25694     25696         0         1
     25698     25697     25699         0         1
     25701     25700     25702         0         1
     25704     25703     25705         0         1
     25707     25706     25708         0         1
     25710     25709     25711         0         1
     25713     25712     25714         0         1
     25716     25715     25717         0         1
     25719     25718     25720         0         1
     25722     25721     25723         0         1
     25725     25724     25726         0         1
     25728     25727     25729         0         1
     25731     25730     25732         0         1
     25734     25733     25735         0         1
     25737     25736     25738         0         1
     25740     25739     25741         0         1
     25743     25742     25744         0         1
     25746     25745     25747         0         1
     25749     25748     25750         0         1
     25752     25751     25753         0         1
     25755     25754     25756         0         1
     25758     25757     25759         0         1
     25761     25760     25762         0         1
     25764     25763     25765         0         1
     25767     25766     25768         0         1
     25770     25769     25771         0         1
     25773     25772     25774         0         1
     25776     25775     25777         0         1
     25779     25778     25780         0         1
     25782     25781     25783         0         1
     25785     25784     25786         0         1
     25788     25787     25789         0         1
     25791     25790     25792         0         1
     25794     25793     25795         0         1
     25797     25796     25798         0         1
     25800     25799     25801         0         1
     25803     25802     25804         0         1
     25806     25805     25807         0         1
     25809     25808     25810         0         1
     25812     25811     25813         0         1
     25815     25814     25816         0         1
     25818     25817     25819         0         1
     25821     25820     25822         0         1
     25824     25823     25825         0         1
     25827     25826     25828         0         1
     25830     25829     25831         0         1
     25833     25832     25834         0         1
     25836     25835     25837         0         1
     25839     25838     25840         0         1
     25842     25841     25843         0         1
     25845     25844     25846         0         1
     25848     25847     25849         0         1
     25851     25850     25852         0         1
     25854     25853     25855         0         1
     25857     25856     25858         0         1
     25860     25859     25861         0         1
     25863     25862     25864         0         1
     25866     25865     25867         0         1
     25869     25868     25870         0         1
     25872     25871     25873         0         1
     25875     25874     25876         0         1
     25878     25877     25879         0         1
     25881     25880     25882         0         1
     25884     25883     25885         0         1
     25887     25886     25888         0         1
     25890     25889     25891         0         1
     25893     25892     25894         0         1
     25896     25895     25897         0         1
     25899     25898     25900         0         1
     25902     25901     25903         0         1
     25905     25904     25906         0         1
     25908     25907     25909         0         1
     25911     25910     25912         0         1
     25914     25913     25915         0         1
     25917     25916     25918         0         1
     25920     25919     25921         0         1
     25923     25922     25924         0         1
     25926     25925     25927         0         1
     25929     25928     25930         0         1
     25932     25931     25933         0         1
     25935     25934     25936         0         1
     25938     25937     25939         0         1
     25941     25940     25942         0         1
     25944     25943     25945         0         1
     25947     25946     25948         0         1
     25950     25949     25951         0         1
     25953     25952     25954         0         1
     25956     25955     25957         0         1
     25959     25958     25960         0         1
     25962     25961     25963         0         1
     25965     25964     25966         0         1
     25968     25967     25969         0         1
     25971     25970     25972         0         1
     25974     25973     25975         0         1
     25977     25976     25978         0         1
     25980     25979     25981         0         1
     25983     25982     25984         0         1
     25986     25985     25987         0         1
     25989     25988     25990         0         1
     25992     25991     25993         0         1
     25995     25994     25996         0         1
     25998     25997     25999         0         1
     26001     26000     26002         0         1
     26004     26003     26005         0         1
     26007     26006     26008         0         1
     26010     26009     26011         0         1
     26013     26012     26014         0         1
     26016     26015     26017         0         1
     26019     26018     26020         0         1
     26022     26021     26023         0         1
     26025     26024     26026         0         1
     26028     26027     26029         0         1
     26031     26030     26032         0         1
     26034     26033     26035         0         1
     26037     26036     26038         0         1
     26040     26039     26041         0         1
     26043     26042     26044         0         1
     26046     26045     26047         0         1
     26049     26048     26050         0         1
     26052     26051     26053         0         1
     26055     26054     26056         0         1
     26058     26057     26059         0         1
     26061     26060     26062         0         1
     26064     26063     26065         0         1
     26067     26066     26068         0         1
     26070     26069     26071         0         1
     26073     26072     26074         0         1
     26076     26075     26077         0         1
     26079     26078     26080         0         1
     26082     26081     26083         0         1
     26085     26084     26086         0         1
     26088     26087     26089         0         1
     26091     26090     26092         0         1
     26094     26093     26095         0         1
     26097     26096     26098         0         1
     26100     26099     26101         0         1
     26103     26102     26104         0         1
     26106     26105     26107         0         1
     26109     26108     26110         0         1
     26112     26111     26113         0         1
     26115     26114     26116         0         1
     26118     26117     26119         0         1
     26121     26120     26122         0         1
     26124     26123     26125         0         1
     26127     26126     26128         0         1
     26130     26129     26131         0         1
     26133     26132     26134         0         1
     26136     26135     26137         0         1
     26139     26138     26140         0         1
     26142     26141     26143         0         1
     26145     26144     26146         0         1
     26148     26147     26149         0         1
     26151     26150     26152         0         1
     26154     26153     26155         0         1
     26157     26156     26158         0         1
     26160     26159     26161         0         1
     26163     26162     26164         0         1
     26166     26165     26167         0         1
     26169     26168     26170         0         1
     26172     26171     26173         0         1
     26175     26174     26176         0         1
     26178     26177     26179         0         1
     26181     26180     26182         0         1
     26184     26183     26185         0         1
     26187     26186     26188         0         1
     26190     26189     26191         0         1
     26193     26192     26194         0         1
     26196     26195     26197         0         1
     26199     26198     26200         0         1
     26202     26201     26203         0         1
     26205     26204     26206         0         1
     26208     26207     26209         0         1
     26211     26210     26212         0         1
     26214     26213     26215         0         1
     26217     26216     26218         0         1
     26220     26219     26221         0         1
     26223     26222     26224         0         1
     26226     26225     26227         0         1
     26229     26228     26230         0         1
     26232     26231     26233         0         1
     26235     26234     26236         0         1
     26238     26237     26239         0         1
     26241     26240     26242         0         1
     26244     26243     26245         0         1
     26247     26246     26248         0         1
     26250     26249     26251         0         1
     26253     26252     26254         0         1
     26256     26255     26257         0         1
     26259     26258     26260         0         1
     26262     26261     26263         0         1
     26265     26264     26266         0         1
     26268     26267     26269         0         1
     26271     26270     26272         0         1
     26274     26273     26275         0         1
     26277     26276     26278         0         1
     26280     26279     26281         0         1
     26283     26282     26284         0         1
     26286     26285     26287         0         1
     26289     26288     26290         0         1
     26292     26291     26293         0         1
     26295     26294     26296         0         1
     26298     26297     26299         0         1
     26301     26300     26302         0         1
     26304     26303     26305         0         1
     26307     26306     26308         0         1
     26310     26309     26311         0         1
     26313     26312     26314         0         1
     26316     26315     26317         0         1
     26319     26318     26320         0         1
     26322     26321     26323         0         1
     26325     26324     26326         0         1
     26328     26327     26329         0         1
     26331     26330     26332         0         1
     26334     26333     26335         0         1
     26337     26336     26338         0         1
     26340     26339     26341         0         1
     26343     26342     26344         0         1
     26346     26345     26347         0         1
     26349     26348     26350         0         1
     26352     26351     26353         0         1
     26355     26354     26356         0         1
     26358     26357     26359         0         1
     26361     26360     26362         0         1
     26364     26363     26365         0         1
     26367     26366     26368         0         1
     26370     26369     26371         0         1
     26373     26372     26374         0         1
     26376     26375     26377         0         1
     26379     26378     26380         0         1
     26382     26381     26383         0         1
     26385     26384     26386         0         1
     26388     26387     26389         0         1
     26391     26390     26392         0         1
     26394     26393     26395         0         1
     26397     26396     26398         0         1
     26400     26399     26401         0         1
     26403     26402     26404         0         1
     26406     26405     26407         0         1
     26409     26408     26410         0         1
     26412     26411     26413         0         1
     26415     26414     26416         0         1
     26418     26417     26419         0         1
     26421     26420     26422         0         1
     26424     26423     26425         0         1
     26427     26426     26428         0         1
     26430     26429     26431         0         1
     26433     26432     26434         0         1
     26436     26435     26437         0         1
     26439     26438     26440         0         1
     26442     26441     26443         0         1
     26445     26444     26446         0         1
     26448     26447     26449         0         1
     26451     26450     26452         0         1
     26454     26453     26455         0         1
     26457     26456     26458         0         1
     26460     26459     26461         0         1
     26463     26462     26464         0         1
     26466     26465     26467         0         1
     26469     26468     26470         0         1
     26472     26471     26473         0         1
     26475     26474     26476         0         1
     26478     26477     26479         0         1
     26481     26480     26482         0         1
     26484     26483     26485         0         1
     26487     26486     26488         0         1
     26490     26489     26491         0         1
     26493     26492     26494         0         1
     26496     26495     26497         0         1
     26499     26498     26500         0         1
     26502     26501     26503         0         1
     26505     26504     26506         0         1
     26508     26507     26509         0         1
     26511     26510     26512         0         1
     26514     26513     26515         0         1
     26517     26516     26518         0         1
     26520     26519     26521         0         1
     26523     26522     26524         0         1
     26526     26525     26527         0         1
     26529     26528     26530         0         1
     26532     26531     26533         0         1
     26535     26534     26536         0         1
     26538     26537     26539         0         1
     26541     26540     26542         0         1
     26544     26543     26545         0         1
     26547     26546     26548         0         1
     26550     26549     26551         0         1
     26553     26552     26554         0         1
     26556     26555     26557         0         1
     26559     26558     26560         0         1
     26562     26561     26563         0         1
     26565     26564     26566         0         1
     26568     26567     26569         0         1
     26571     26570     26572         0         1
     26574     26573     26575         0         1
     26577     26576     26578         0         1
     26580     26579     26581         0         1
     26583     26582     26584         0         1
     26586     26585     26587         0         1
     26589     26588     26590         0         1
     26592     26591     26593         0         1
     26595     26594     26596         0         1
     26598     26597     26599         0         1
     26601     26600     26602         0         1
     26604     26603     26605         0         1
     26607     26606     26608         0         1
     26610     26609     26611         0         1
     26613     26612     26614         0         1
     26616     26615     26617         0         1
     26619     26618     26620         0         1
     26622     26621     26623         0         1
     26625     26624     26626         0         1
     26628     26627     26629         0         1
     26631     26630     26632         0         1
     26634     26633     26635         0         1
     26637     26636     26638         0         1
     26640     26639     26641         0         1
     26643     26642     26644         0         1
     26646     26645     26647         0         1
     26649     26648     26650         0         1
     26652     26651     26653         0         1
     26655     26654     26656         0         1
     26658     26657     26659         0         1
     26661     26660     26662         0         1
     26664     26663     26665         0         1
     26667     26666     26668         0         1
     26670     26669     26671         0         1
     26673     26672     26674         0         1
     26676     26675     26677         0         1
     26679     26678     26680         0         1
     26682     26681     26683         0         1
     26685     26684     26686         0         1
     26688     26687     26689         0         1
     26691     26690     26692         0         1
     26694     26693     26695         0         1
     26697     26696     26698         0         1
     26700     26699     26701         0         1
     26703     26702     26704         0         1
     26706     26705     26707         0         1
     26709     26708     26710         0         1
     26712     26711     26713         0         1
     26715     26714     26716         0         1
     26718     26717     26719         0         1
     26721     26720     26722         0         1
     26724     26723     26725         0         1
     26727     26726     26728         0         1
     26730     26729     26731         0         1
     26733     26732     26734         0         1
     26736     26735     26737         0         1
     26739     26738     26740         0         1
     26742     26741     26743         0         1
     26745     26744     26746         0         1
     26748     26747     26749         0         1
     26751     26750     26752         0         1
     26754     26753     26755         0         1
     26757     26756     26758         0         1
     26760     26759     26761         0         1
     26763     26762     26764         0         1
     26766     26765     26767         0         1
     26769     26768     26770         0         1
     26772     26771     26773         0         1
     26775     26774     26776         0         1
     26778     26777     26779         0         1
     26781     26780     26782         0         1
     26784     26783     26785         0         1
     26787     26786     26788         0         1
     26790     26789     26791         0         1
     26793     26792     26794         0         1
     26796     26795     26797         0         1
     26799     26798     26800         0         1
     26802     26801     26803         0         1
     26805     26804     26806         0         1
     26808     26807     26809         0         1
     26811     26810     26812         0         1
     26814     26813     26815         0         1
     26817     26816     26818         0         1
     26820     26819     26821         0         1
     26823     26822     26824         0         1
     26826     26825     26827         0         1
     26829     26828     26830         0         1
     26832     26831     26833         0         1
     26835     26834     26836         0         1
     26838     26837     26839         0         1
     26841     26840     26842         0         1
     26844     26843     26845         0         1
     26847     26846     26848         0         1
     26850     26849     26851         0         1
     26853     26852     26854         0         1
     26856     26855     26857         0         1
     26859     26858     26860         0         1
     26862     26861     26863         0         1
     26865     26864     26866         0         1
     26868     26867     26869         0         1
     26871     26870     26872         0         1
     26874     26873     26875         0         1
     26877     26876     26878         0         1
     26880     26879     26881         0         1
     26883     26882     26884         0         1
     26886     26885     26887         0         1
     26889     26888     26890         0         1
     26892     26891     26893         0         1
     26895     26894     26896         0         1
     26898     26897     26899         0         1
     26901     26900     26902         0         1
     26904     26903     26905         0         1
     26907     26906     26908         0         1
     26910     26909     26911         0         1
     26913     26912     26914         0         1
     26916     26915     26917         0         1
     26919     26918     26920         0         1
     26922     26921     26923         0         1
     26925     26924     26926         0         1
     26928     26927     26929         0         1
     26931     26930     26932         0         1
     26934     26933     26935         0         1
     26937     26936     26938         0         1
     26940     26939     26941         0         1
     26943     26942     26944         0         1
     26946     26945     26947         0         1
     26949     26948     26950         0         1
     26952     26951     26953         0         1
     26955     26954     26956         0         1
     26958     26957     26959         0         1
     26961     26960     26962         0         1
     26964     26963     26965         0         1
     26967     26966     26968         0         1
     26970     26969     26971         0         1
     26973     26972     26974         0         1
     26976     26975     26977         0         1
     26979     26978     26980         0         1
     26982     26981     26983         0         1
     26985     26984     26986         0         1
     26988     26987     26989         0         1
     26991     26990     26992         0         1
     26994     26993     26995         0         1
     26997     26996     26998         0         1
     27000     26999     27001         0         1
     27003     27002     27004         0         1
     27006     27005     27007         0         1
     27009     27008     27010         0         1
     27012     27011     27013         0         1
     27015     27014     27016         0         1
     27018     27017     27019         0         1
     27021     27020     27022         0         1
     27024     27023     27025         0         1
     27027     27026     27028         0         1
     27030     27029     27031         0         1
     27033     27032     27034         0         1
     27036     27035     27037         0         1
     27039     27038     27040         0         1
     27042     27041     27043         0         1
     27045     27044     27046         0         1
     27048     27047     27049         0         1
     27051     27050     27052         0         1
     27054     27053     27055         0         1
     27057     27056     27058         0         1
     27060     27059     27061         0         1
     27063     27062     27064         0         1
     27066     27065     27067         0         1
     27069     27068     27070         0         1
     27072     27071     27073         0         1
     27075     27074     27076         0         1
     27078     27077     27079         0         1
     27081     27080     27082         0         1
     27084     27083     27085         0         1
     27087     27086     27088         0         1
     27090     27089     27091         0         1
     27093     27092     27094         0         1
     27096     27095     27097         0         1
     27099     27098     27100         0         1
     27102     27101     27103         0         1
     27105     27104     27106         0         1
     27108     27107     27109         0         1
     27111     27110     27112         0         1
     27114     27113     27115         0         1
     27117     27116     27118         0         1
     27120     27119     27121         0         1
     27123     27122     27124         0         1
     27126     27125     27127         0         1
     27129     27128     27130         0         1
     27132     27131     27133         0         1
     27135     27134     27136         0         1
     27138     27137     27139         0         1
     27141     27140     27142         0         1
     27144     27143     27145         0         1
     27147     27146     27148         0         1
     27150     27149     27151         0         1
     27153     27152     27154         0         1
     27156     27155     27157         0         1
     27159     27158     27160         0         1
     27162     27161     27163         0         1
     27165     27164     27166         0         1
     27168     27167     27169         0         1
     27171     27170     27172         0         1
     27174     27173     27175         0         1
     27177     27176     27178         0         1
     27180     27179     27181         0         1
     27183     27182     27184         0         1
     27186     27185     27187         0         1
     27189     27188     27190         0         1
     27192     27191     27193         0         1
     27195     27194     27196         0         1
     27198     27197     27199         0         1
     27201     27200     27202         0         1
     27204     27203     27205         0         1
     27207     27206     27208         0         1
     27210     27209     27211         0         1
     27213     27212     27214         0         1
     27216     27215     27217         0         1
     27219     27218     27220         0         1
     27222     27221     27223         0         1
     27225     27224     27226         0         1
     27228     27227     27229         0         1
     27231     27230     27232         0         1
     27234     27233     27235         0         1
     27237     27236     27238         0         1
     27240     27239     27241         0         1
     27243     27242     27244         0         1
     27246     27245     27247         0         1
     27249     27248     27250         0         1
     27252     27251     27253         0         1
     27255     27254     27256         0         1
     27258     27257     27259         0         1
     27261     27260     27262         0         1
     27264     27263     27265         0         1
     27267     27266     27268         0         1
     27270     27269     27271         0         1
     27273     27272     27274         0         1
     27276     27275     27277         0         1
     27279     27278     27280         0         1
     27282     27281     27283         0         1
     27285     27284     27286         0         1
     27288     27287     27289         0         1
     27291     27290     27292         0         1
     27294     27293     27295         0         1
     27297     27296     27298         0         1
     27300     27299     27301         0         1
     27303     27302     27304         0         1
     27306     27305     27307         0         1
     27309     27308     27310         0         1
     27312     27311     27313         0         1
     27315     27314     27316         0         1
     27318     27317     27319         0         1
     27321     27320     27322         0         1
     27324     27323     27325         0         1
     27327     27326     27328         0         1
     27330     27329     27331         0         1
     27333     27332     27334         0         1
     27336     27335     27337         0         1
     27339     27338     27340         0         1
     27342     27341     27343         0         1
     27345     27344     27346         0         1
     27348     27347     27349         0         1
     27351     27350     27352         0         1
     27354     27353     27355         0         1
     27357     27356     27358         0         1
     27360     27359     27361         0         1
     27363     27362     27364         0         1
     27366     27365     27367         0         1
     27369     27368     27370         0         1
     27372     27371     27373         0         1
     27375     27374     27376         0         1
     27378     27377     27379         0         1
     27381     27380     27382         0         1
     27384     27383     27385         0         1
     27387     27386     27388         0         1
     27390     27389     27391         0         1
     27393     27392     27394         0         1
     27396     27395     27397         0         1
     27399     27398     27400         0         1
     27402     27401     27403         0         1
     27405     27404     27406         0         1
     27408     27407     27409         0         1
     27411     27410     27412         0         1
     27414     27413     27415         0         1
     27417     27416     27418         0         1
     27420     27419     27421         0         1
     27423     27422     27424         0         1
     27426     27425     27427         0         1
     27429     27428     27430         0         1
     27432     27431     27433         0         1
     27435     27434     27436         0         1
     27438     27437     27439         0         1
     27441     27440     27442         0         1
     27444     27443     27445         0         1
     27447     27446     27448         0         1
     27450     27449     27451         0         1
     27453     27452     27454         0         1
     27456     27455     27457         0         1
     27459     27458     27460         0         1
     27462     27461     27463         0         1
     27465     27464     27466         0         1
     27468     27467     27469         0         1
     27471     27470     27472         0         1
     27474     27473     27475         0         1
     27477     27476     27478         0         1
     27480     27479     27481         0         1
     27483     27482     27484         0         1
     27486     27485     27487         0         1
     27489     27488     27490         0         1
     27492     27491     27493         0         1
     27495     27494     27496         0         1
     27498     27497     27499         0         1
     27501     27500     27502         0         1
     27504     27503     27505         0         1
     27507     27506     27508         0         1
     27510     27509     27511         0         1
     27513     27512     27514         0         1
     27516     27515     27517         0         1
     27519     27518     27520         0         1
     27522     27521     27523         0         1
     27525     27524     27526         0         1
     27528     27527     27529         0         1
     27531     27530     27532         0         1
     27534     27533     27535         0         1
     27537     27536     27538         0         1
     27540     27539     27541         0         1
     27543     27542     27544         0         1
     27546     27545     27547         0         1
     27549     27548     27550         0         1
     27552     27551     27553         0         1
     27555     27554     27556         0         1
     27558     27557     27559         0         1
     27561     27560     27562         0         1
     27564     27563     27565         0         1
     27567     27566     27568         0         1
     27570     27569     27571         0         1
     27573     27572     27574         0         1
     27576     27575     27577         0         1
     27579     27578     27580         0         1
     27582     27581     27583         0         1
     27585     27584     27586         0         1
     27588     27587     27589         0         1
     27591     27590     27592         0         1
     27594     27593     27595         0         1
     27597     27596     27598         0         1
     27600     27599     27601         0         1
     27603     27602     27604         0         1
     27606     27605     27607         0         1
     27609     27608     27610         0         1
     27612     27611     27613         0         1
     27615     27614     27616         0         1
     27618     27617     27619         0         1
     27621     27620     27622         0         1
     27624     27623     27625         0         1
     27627     27626     27628         0         1
     27630     27629     27631         0         1
     27633     27632     27634         0         1
     27636     27635     27637         0         1
     27639     27638     27640         0         1
     27642     27641     27643         0         1
     27645     27644     27646         0         1
     27648     27647     27649         0         1
     27651     27650     27652         0         1
     27654     27653     27655         0         1
     27657     27656     27658         0         1
     27660     27659     27661         0         1
     27663     27662     27664         0         1
     27666     27665     27667         0         1
     27669     27668     27670         0         1
     27672     27671     27673         0         1
     27675     27674     27676         0         1
     27678     27677     27679         0         1
     27681     27680     27682         0         1
     27684     27683     27685         0         1
     27687     27686     27688         0         1
     27690     27689     27691         0         1
     27693     27692     27694         0         1
     27696     27695     27697         0         1
     27699     27698     27700         0         1
     27702     27701     27703         0         1
     27705     27704     27706         0         1
     27708     27707     27709         0         1
     27711     27710     27712         0         1
     27714     27713     27715         0         1
     27717     27716     27718         0         1
     27720     27719     27721         0         1
     27723     27722     27724         0         1
     27726     27725     27727         0         1
     27729     27728     27730         0         1
     27732     27731     27733         0         1
     27735     27734     27736         0         1
     27738     27737     27739         0         1
     27741     27740     27742         0         1
     27744     27743     27745         0         1
     27747     27746     27748         0         1
     27750     27749     27751         0         1
     27753     27752     27754         0         1
     27756     27755     27757         0         1
     27759     27758     27760         0         1
     27762     27761     27763         0         1
     27765     27764     27766         0         1
     27768     27767     27769         0         1
     27771     27770     27772         0         1
     27774     27773     27775         0         1
     27777     27776     27778         0         1
     27780     27779     27781         0         1
     27783     27782     27784         0         1
     27786     27785     27787         0         1
     27789     27788     27790         0         1
     27792     27791     27793         0         1
     27795     27794     27796         0         1
     27798     27797     27799         0         1
     27801     27800     27802         0         1
     27804     27803     27805         0         1
     27807     27806     27808         0         1
     27810     27809     27811         0         1
     27813     27812     27814         0         1
     27816     27815     27817         0         1
     27819     27818     27820         0         1
     27822     27821     27823         0         1
     27825     27824     27826         0         1
     27828     27827     27829         0         1
     27831     27830     27832         0         1
     27834     27833     27835         0         1
     27837     27836     27838         0         1
     27840     27839     27841         0         1
     27843     27842     27844         0         1
     27846     27845     27847         0         1
     27849     27848     27850         0         1
     27852     27851     27853         0         1
     27855     27854     27856         0         1
     27858     27857     27859         0         1
     27861     27860     27862         0         1
     27864     27863     27865         0         1
     27867     27866     27868         0         1
     27870     27869     27871         0         1
     27873     27872     27874         0         1
     27876     27875     27877         0         1
     27879     27878     27880         0         1
     27882     27881     27883         0         1
     27885     27884     27886         0         1
     27888     27887     27889         0         1
     27891     27890     27892         0         1
     27894     27893     27895         0         1
     27897     27896     27898         0         1
     27900     27899     27901         0         1
     27903     27902     27904         0         1
     27906     27905     27907         0         1
     27909     27908     27910         0         1
     27912     27911     27913         0         1
     27915     27914     27916         0         1
     27918     27917     27919         0         1
     27921     27920     27922         0         1
     27924     27923     27925         0         1
     27927     27926     27928         0         1
     27930     27929     27931         0         1
     27933     27932     27934         0         1
     27936     27935     27937         0         1
     27939     27938     27940         0         1
     27942     27941     27943         0         1
     27945     27944     27946         0         1
     27948     27947     27949         0         1
     27951     27950     27952         0         1
     27954     27953     27955         0         1
     27957     27956     27958         0         1
     27960     27959     27961         0         1
     27963     27962     27964         0         1
     27966     27965     27967         0         1
     27969     27968     27970         0         1
     27972     27971     27973         0         1
     27975     27974     27976         0         1
     27978     27977     27979         0         1
     27981     27980     27982         0         1
     27984     27983     27985         0         1
     27987     27986     27988         0         1
     27990     27989     27991         0         1
     27993     27992     27994         0         1
     27996     27995     27997         0         1
     27999     27998     28000         0         1
     28002     28001     28003         0         1
     28005     28004     28006         0         1
     28008     28007     28009         0         1
     28011     28010     28012         0         1
     28014     28013     28015         0         1
     28017     28016     28018         0         1
     28020     28019     28021         0         1
     28023     28022     28024         0         1
     28026     28025     28027         0         1
     28029     28028     28030         0         1
     28032     28031     28033         0         1
     28035     28034     28036         0         1
     28038     28037     28039         0         1
     28041     28040     28042         0         1
     28044     28043     28045         0         1
     28047     28046     28048         0         1
     28050     28049     28051         0         1
     28053     28052     28054         0         1
     28056     28055     28057         0         1
     28059     28058     28060         0         1
     28062     28061     28063         0         1
     28065     28064     28066         0         1
     28068     28067     28069         0         1
     28071     28070     28072         0         1
     28074     28073     28075         0         1
     28077     28076     28078         0         1
     28080     28079     28081         0         1
     28083     28082     28084         0         1
     28086     28085     28087         0         1
     28089     28088     28090         0         1
     28092     28091     28093         0         1
     28095     28094     28096         0         1
     28098     28097     28099         0         1
     28101     28100     28102         0         1
     28104     28103     28105         0         1
     28107     28106     28108         0         1
     28110     28109     28111         0         1
     28113     28112     28114         0         1
     28116     28115     28117         0         1
     28119     28118     28120         0         1
     28122     28121     28123         0         1
     28125     28124     28126         0         1
     28128     28127     28129         0         1
     28131     28130     28132         0         1
     28134     28133     28135         0         1
     28137     28136     28138         0         1
     28140     28139     28141         0         1
     28143     28142     28144         0         1
     28146     28145     28147         0         1
     28149     28148     28150         0         1
     28152     28151     28153         0         1
     28155     28154     28156         0         1
     28158     28157     28159         0         1
     28161     28160     28162         0         1
     28164     28163     28165         0         1
     28167     28166     28168         0         1
     28170     28169     28171         0         1
     28173     28172     28174         0         1
     28176     28175     28177         0         1
     28179     28178     28180         0         1
     28182     28181     28183         0         1
     28185     28184     28186         0         1
     28188     28187     28189         0         1
     28191     28190     28192         0         1
     28194     28193     28195         0         1
     28197     28196     28198         0         1
     28200     28199     28201         0         1
     28203     28202     28204         0         1
     28206     28205     28207         0         1
     28209     28208     28210         0         1
     28212     28211     28213         0         1
     28215     28214     28216         0         1
     28218     28217     28219         0         1
     28221     28220     28222         0         1
     28224     28223     28225         0         1
     28227     28226     28228         0         1
     28230     28229     28231         0         1
     28233     28232     28234         0         1
     28236     28235     28237         0         1
     28239     28238     28240         0         1
     28242     28241     28243         0         1
     28245     28244     28246         0         1
     28248     28247     28249         0         1
     28251     28250     28252         0         1
     28254     28253     28255         0         1
     28257     28256     28258         0         1
     28260     28259     28261         0         1
     28263     28262     28264         0         1
     28266     28265     28267         0         1
     28269     28268     28270         0         1
     28272     28271     28273         0         1
     28275     28274     28276         0         1
     28278     28277     28279         0         1
     28281     28280     28282         0         1
     28284     28283     28285         0         1
     28287     28286     28288         0         1
     28290     28289     28291         0         1
     28293     28292     28294         0         1
     28296     28295     28297         0         1
     28299     28298     28300         0         1
     28302     28301     28303         0         1
     28305     28304     28306         0         1
     28308     28307     28309         0         1
     28311     28310     28312         0         1
     28314     28313     28315         0         1
     28317     28316     28318         0         1
     28320     28319     28321         0         1
     28323     28322     28324         0         1
     28326     28325     28327         0         1
     28329     28328     28330         0         1
     28332     28331     28333         0         1
     28335     28334     28336         0         1
     28338     28337     28339         0         1
     28341     28340     28342         0         1
     28344     28343     28345         0         1
     28347     28346     28348         0         1
     28350     28349     28351         0         1
     28353     28352     28354         0         1
     28356     28355     28357         0         1
     28359     28358     28360         0         1
     28362     28361     28363         0         1
     28365     28364     28366         0         1
     28368     28367     28369         0         1
     28371     28370     28372         0         1
     28374     28373     28375         0         1
     28377     28376     28378         0         1
     28380     28379     28381         0         1
     28383     28382     28384         0         1
     28386     28385     28387         0         1
     28389     28388     28390         0         1
     28392     28391     28393         0         1
     28395     28394     28396         0         1
     28398     28397     28399         0         1
     28401     28400     28402         0         1
     28404     28403     28405         0         1
     28407     28406     28408         0         1
     28410     28409     28411         0         1
     28413     28412     28414         0         1
     28416     28415     28417         0         1
     28419     28418     28420         0         1
     28422     28421     28423         0         1
     28425     28424     28426         0         1
     28428     28427     28429         0         1
     28431     28430     28432         0         1
     28434     28433     28435         0         1
     28437     28436     28438         0         1
     28440     28439     28441         0         1
     28443     28442     28444         0         1
     28446     28445     28447         0         1
     28449     28448     28450         0         1
     28452     28451     28453         0         1
     28455     28454     28456         0         1
     28458     28457     28459         0         1
     28461     28460     28462         0         1
     28464     28463     28465         0         1
     28467     28466     28468         0         1
     28470     28469     28471         0         1
     28473     28472     28474         0         1
     28476     28475     28477         0         1
     28479     28478     28480         0         1
     28482     28481     28483         0         1
     28485     28484     28486         0         1
     28488     28487     28489         0         1
     28491     28490     28492         0         1
     28494     28493     28495         0         1
     28497     28496     28498         0         1
     28500     28499     28501         0         1
     28503     28502     28504         0         1
     28506     28505     28507         0         1
     28509     28508     28510         0         1
     28512     28511     28513         0         1
     28515     28514     28516         0         1
     28518     28517     28519         0         1
     28521     28520     28522         0         1
     28524     28523     28525         0         1
     28527     28526     28528         0         1
     28530     28529     28531         0         1
     28533     28532     28534         0         1
     28536     28535     28537         0         1
     28539     28538     28540         0         1
     28542     28541     28543         0         1
     28545     28544     28546         0         1
     28548     28547     28549         0         1
     28551     28550     28552         0         1
     28554     28553     28555         0         1
     28557     28556     28558         0         1
     28560     28559     28561         0         1
     28563     28562     28564         0         1
     28566     28565     28567         0         1
     28569     28568     28570         0         1
     28572     28571     28573         0         1
     28575     28574     28576         0         1
     28578     28577     28579         0         1
     28581     28580     28582         0         1
     28584     28583     28585         0         1
     28587     28586     28588         0         1
     28590     28589     28591         0         1
     28593     28592     28594         0         1
     28596     28595     28597         0         1
     28599     28598     28600         0         1
     28602     28601     28603         0         1
     28605     28604     28606         0         1
     28608     28607     28609         0         1
     28611     28610     28612         0         1
     28614     28613     28615         0         1
     28617     28616     28618         0         1
     28620     28619     28621         0         1
     28623     28622     28624         0         1
     28626     28625     28627         0         1
     28629     28628     28630         0         1
     28632     28631     28633         0         1
     28635     28634     28636         0         1
     28638     28637     28639         0         1
     28641     28640     28642         0         1
     28644     28643     28645         0         1
     28647     28646     28648         0         1
     28650     28649     28651         0         1
     28653     28652     28654         0         1
     28656     28655     28657         0         1
     28659     28658     28660         0         1
     28662     28661     28663         0         1
     28665     28664     28666         0         1
     28668     28667     28669         0         1
     28671     28670     28672         0         1
     28674     28673     28675         0         1
     28677     28676     28678         0         1
     28680     28679     28681         0         1
     28683     28682     28684         0         1
     28686     28685     28687         0         1
     28689     28688     28690         0         1
     28692     28691     28693         0         1
     28695     28694     28696         0         1
     28698     28697     28699         0         1
     28701     28700     28702         0         1
     28704     28703     28705         0         1
     28707     28706     28708         0         1
     28710     28709     28711         0         1
     28713     28712     28714         0         1
     28716     28715     28717         0         1
     28719     28718     28720         0         1
     28722     28721     28723         0         1
     28725     28724     28726         0         1
     28728     28727     28729         0         1
     28731     28730     28732         0         1
     28734     28733     28735         0         1
     28737     28736     28738         0         1
     28740     28739     28741         0         1
     28743     28742     28744         0         1
     28746     28745     28747         0         1
     28749     28748     28750         0         1
     28752     28751     28753         0         1
     28755     28754     28756         0         1
     28758     28757     28759         0         1
     28761     28760     28762         0         1
     28764     28763     28765         0         1
     28767     28766     28768         0         1
     28770     28769     28771         0         1
     28773     28772     28774         0         1
     28776     28775     28777         0         1
     28779     28778     28780         0         1
     28782     28781     28783         0         1
     28785     28784     28786         0         1
     28788     28787     28789         0         1
     28791     28790     28792         0         1
     28794     28793     28795         0         1
     28797     28796     28798         0         1
     28800     28799     28801         0         1
     28803     28802     28804         0         1
     28806     28805     28807         0         1
     28809     28808     28810         0         1
     28812     28811     28813         0         1
     28815     28814     28816         0         1
     28818     28817     28819         0         1
     28821     28820     28822         0         1
     28824     28823     28825         0         1
     28827     28826     28828         0         1
     28830     28829     28831         0         1
     28833     28832     28834         0         1
     28836     28835     28837         0         1
     28839     28838     28840         0         1
     28842     28841     28843         0         1
     28845     28844     28846         0         1
     28848     28847     28849         0         1
     28851     28850     28852         0         1
     28854     28853     28855         0         1
     28857     28856     28858         0         1
     28860     28859     28861         0         1
     28863     28862     28864         0         1
     28866     28865     28867         0         1
     28869     28868     28870         0         1
     28872     28871     28873         0         1
     28875     28874     28876         0         1
     28878     28877     28879         0         1
     28881     28880     28882         0         1
     28884     28883     28885         0         1
     28887     28886     28888         0         1
     28890     28889     28891         0         1
     28893     28892     28894         0         1
     28896     28895     28897         0         1
     28899     28898     28900         0         1
     28902     28901     28903         0         1
     28905     28904     28906         0         1
     28908     28907     28909         0         1
     28911     28910     28912         0         1
     28914     28913     28915         0         1
     28917     28916     28918         0         1
     28920     28919     28921         0         1
     28923     28922     28924         0         1
     28926     28925     28927         0         1
     28929     28928     28930         0         1
     28932     28931     28933         0         1
     28935     28934     28936         0         1
     28938     28937     28939         0         1
     28941     28940     28942         0         1
     28944     28943     28945         0         1
     28947     28946     28948         0         1
     28950     28949     28951         0         1
     28953     28952     28954         0         1
     28956     28955     28957         0         1
     28959     28958     28960         0         1
     28962     28961     28963         0         1
     28965     28964     28966         0         1
     28968     28967     28969         0         1
     28971     28970     28972         0         1
     28974     28973     28975         0         1
     28977     28976     28978         0         1
     28980     28979     28981         0         1
     28983     28982     28984         0         1
     28986     28985     28987         0         1
     28989     28988     28990         0         1
     28992     28991     28993         0         1
     28995     28994     28996         0         1
     28998     28997     28999         0         1
     29001     29000     29002         0         1
     29004     29003     29005         0         1
     29007     29006     29008         0         1
     29010     29009     29011         0         1
     29013     29012     29014         0         1
     29016     29015     29017         0         1
     29019     29018     29020         0         1
     29022     29021     29023         0         1
     29025     29024     29026         0         1
     29028     29027     29029         0         1
     29031     29030     29032         0         1
     29034     29033     29035         0         1
     29037     29036     29038         0         1
     29040     29039     29041         0         1
     29043     29042     29044         0         1
     29046     29045     29047         0         1
     29049     29048     29050         0         1
     29052     29051     29053         0         1
     29055     29054     29056         0         1
     29058     29057     29059         0         1
     29061     29060     29062         0         1
     29064     29063     29065         0         1
     29067     29066     29068         0         1
     29070     29069     29071         0         1
     29073     29072     29074         0         1
     29076     29075     29077         0         1
     29079     29078     29080         0         1
     29082     29081     29083         0         1
     29085     29084     29086         0         1
     29088     29087     29089         0         1
     29091     29090     29092         0         1
     29094     29093     29095         0         1
     29097     29096     29098         0         1
     29100     29099     29101         0         1
     29103     29102     29104         0         1
     29106     29105     29107         0         1
     29109     29108     29110         0         1
     29112     29111     29113         0         1
     29115     29114     29116         0         1
     29118     29117     29119         0         1
     29121     29120     29122         0         1
     29124     29123     29125         0         1
     29127     29126     29128         0         1
     29130     29129     29131         0         1
     29133     29132     29134         0         1
     29136     29135     29137         0         1
     29139     29138     29140         0         1
     29142     29141     29143         0         1
     29145     29144     29146         0         1
     29148     29147     29149         0         1
     29151     29150     29152         0         1
     29154     29153     29155         0         1
     29157     29156     29158         0         1
     29160     29159     29161         0         1
     29163     29162     29164         0         1
     29166     29165     29167         0         1
     29169     29168     29170         0         1
     29172     29171     29173         0         1
     29175     29174     29176         0         1
     29178     29177     29179         0         1
     29181     29180     29182         0         1
     29184     29183     29185         0         1
     29187     29186     29188         0         1
     29190     29189     29191         0         1
     29193     29192     29194         0         1
     29196     29195     29197         0         1
     29199     29198     29200         0         1
     29202     29201     29203         0         1
     29205     29204     29206         0         1
     29208     29207     29209         0         1
     29211     29210     29212         0         1
     29214     29213     29215         0         1
     29217     29216     29218         0         1
     29220     29219     29221         0         1
     29223     29222     29224         0         1
     29226     29225     29227         0         1
     29229     29228     29230         0         1
     29232     29231     29233         0         1
     29235     29234     29236         0         1
     29238     29237     29239         0         1
     29241     29240     29242         0         1
     29244     29243     29245         0         1
     29247     29246     29248         0         1
     29250     29249     29251         0         1
     29253     29252     29254         0         1
     29256     29255     29257         0         1
     29259     29258     29260         0         1
     29262     29261     29263         0         1
     29265     29264     29266         0         1
     29268     29267     29269         0         1
     29271     29270     29272         0         1
     29274     29273     29275         0         1
     29277     29276     29278         0         1
     29280     29279     29281         0         1
     29283     29282     29284         0         1
     29286     29285     29287         0         1
     29289     29288     29290         0         1
     29292     29291     29293         0         1
     29295     29294     29296         0         1
     29298     29297     29299         0         1
     29301     29300     29302         0         1
     29304     29303     29305         0         1
     29307     29306     29308         0         1
     29310     29309     29311         0         1
     29313     29312     29314         0         1
     29316     29315     29317         0         1
     29319     29318     29320         0         1
     29322     29321     29323         0         1
     29325     29324     29326         0         1
     29328     29327     29329         0         1
     29331     29330     29332         0         1
     29334     29333     29335         0         1
     29337     29336     29338         0         1
     29340     29339     29341         0         1
     29343     29342     29344         0         1
     29346     29345     29347         0         1
     29349     29348     29350         0         1
     29352     29351     29353         0         1
     29355     29354     29356         0         1
     29358     29357     29359         0         1
     29361     29360     29362         0         1
     29364     29363     29365         0         1
     29367     29366     29368         0         1
     29370     29369     29371         0         1
     29373     29372     29374         0         1
     29376     29375     29377         0         1
     29379     29378     29380         0         1
     29382     29381     29383         0         1
     29385     29384     29386         0         1
     29388     29387     29389         0         1
     29391     29390     29392         0         1
     29394     29393     29395         0         1
     29397     29396     29398         0         1
     29400     29399     29401         0         1
     29403     29402     29404         0         1
     29406     29405     29407         0         1
     29409     29408     29410         0         1
     29412     29411     29413         0         1
     29415     29414     29416         0         1
     29418     29417     29419         0         1
     29421     29420     29422         0         1
     29424     29423     29425         0         1
     29427     29426     29428         0         1
     29430     29429     29431         0         1
     29433     29432     29434         0         1
     29436     29435     29437         0         1
     29439     29438     29440         0         1
     29442     29441     29443         0         1
     29445     29444     29446         0         1
     29448     29447     29449         0         1
     29451     29450     29452         0         1
     29454     29453     29455         0         1
     29457     29456     29458         0         1
     29460     29459     29461         0         1
     29463     29462     29464         0         1
     29466     29465     29467         0         1
     29469     29468     29470         0         1
     29472     29471     29473         0         1
     29475     29474     29476         0         1
     29478     29477     29479         0         1
     29481     29480     29482         0         1
     29484     29483     29485         0         1
     29487     29486     29488         0         1
     29490     29489     29491         0         1
     29493     29492     29494         0         1
     29496     29495     29497         0         1
     29499     29498     29500         0         1
     29502     29501     29503         0         1
     29505     29504     29506         0         1
     29508     29507     29509         0         1
     29511     29510     29512         0         1
     29514     29513     29515         0         1
     29517     29516     29518         0         1
     29520     29519     29521         0         1
     29523     29522     29524         0         1
     29526     29525     29527         0         1
     29529     29528     29530         0         1
     29532     29531     29533         0         1
     29535     29534     29536         0         1
     29538     29537     29539         0         1
     29541     29540     29542         0         1
     29544     29543     29545         0         1
     29547     29546     29548         0         1
     29550     29549     29551         0         1
     29553     29552     29554         0         1
     29556     29555     29557         0         1
     29559     29558     29560         0         1
     29562     29561     29563         0         1
     29565     29564     29566         0         1
     29568     29567     29569         0         1
     29571     29570     29572         0         1
     29574     29573     29575         0         1
     29577     29576     29578         0         1
     29580     29579     29581         0         1
     29583     29582     29584         0         1
     29586     29585     29587         0         1
     29589     29588     29590         0         1
     29592     29591     29593         0         1
     29595     29594     29596         0         1
     29598     29597     29599         0         1
     29601     29600     29602         0         1
     29604     29603     29605         0         1
     29607     29606     29608         0         1
     29610     29609     29611         0         1
     29613     29612     29614         0         1
     29616     29615     29617         0         1
     29619     29618     29620         0         1
     29622     29621     29623         0         1
     29625     29624     29626         0         1
     29628     29627     29629         0         1
     29631     29630     29632         0         1
     29634     29633     29635         0         1
     29637     29636     29638         0         1
     29640     29639     29641         0         1
     29643     29642     29644         0         1
     29646     29645     29647         0         1
     29649     29648     29650         0         1
     29652     29651     29653         0         1
     29655     29654     29656         0         1
     29658     29657     29659         0         1
     29661     29660     29662         0         1
     29664     29663     29665         0         1
     29667     29666     29668         0         1
     29670     29669     29671         0         1
     29673     29672     29674         0         1
     29676     29675     29677         0         1
     29679     29678     29680         0         1
     29682     29681     29683         0         1
     29685     29684     29686         0         1
     29688     29687     29689         0         1
     29691     29690     29692         0         1
     29694     29693     29695         0         1
     29697     29696     29698         0         1
     29700     29699     29701         0         1
     29703     29702     29704         0         1
     29706     29705     29707         0         1
     29709     29708     29710         0         1
     29712     29711     29713         0         1
     29715     29714     29716         0         1
     29718     29717     29719         0         1
     29721     29720     29722         0         1
     29724     29723     29725         0         1
     29727     29726     29728         0         1
     29730     29729     29731         0         1
     29733     29732     29734         0         1
     29736     29735     29737         0         1
     29739     29738     29740         0         1
     29742     29741     29743         0         1
     29745     29744     29746         0         1
     29748     29747     29749         0         1
     29751     29750     29752         0         1
     29754     29753     29755         0         1
     29757     29756     29758         0         1
     29760     29759     29761         0         1
     29763     29762     29764         0         1
     29766     29765     29767         0         1
     29769     29768     29770         0         1
     29772     29771     29773         0         1
     29775     29774     29776         0         1
     29778     29777     29779         0         1
     29781     29780     29782         0         1
     29784     29783     29785         0         1
     29787     29786     29788         0         1
     29790     29789     29791         0         1
     29793     29792     29794         0         1
     29796     29795     29797         0         1
     29799     29798     29800         0         1
     29802     29801     29803         0         1
     29805     29804     29806         0         1
     29808     29807     29809         0         1
     29811     29810     29812         0         1
     29814     29813     29815         0         1
     29817     29816     29818         0         1
     29820     29819     29821         0         1
     29823     29822     29824         0         1
     29826     29825     29827         0         1
     29829     29828     29830         0         1
     29832     29831     29833         0         1
     29835     29834     29836         0         1
     29838     29837     29839         0         1
     29841     29840     29842         0         1
     29844     29843     29845         0         1
     29847     29846     29848         0         1
     29850     29849     29851         0         1
     29853     29852     29854         0         1
     29856     29855     29857         0         1
     29859     29858     29860         0         1
     29862     29861     29863         0         1
     29865     29864     29866         0         1
     29868     29867     29869         0         1
     29871     29870     29872         0         1
     29874     29873     29875         0         1
     29877     29876     29878         0         1
     29880     29879     29881         0         1
     29883     29882     29884         0         1
     29886     29885     29887         0         1
     29889     29888     29890         0         1
     29892     29891     29893         0         1
     29895     29894     29896         0         1
     29898     29897     29899         0         1
     29901     29900     29902         0         1
     29904     29903     29905         0         1
     29907     29906     29908         0         1
     29910     29909     29911         0         1
     29913     29912     29914         0         1
     29916     29915     29917         0         1
     29919     29918     29920         0         1
     29922     29921     29923         0         1
     29925     29924     29926         0         1
     29928     29927     29929         0         1
     29931     29930     29932         0         1
     29934     29933     29935         0         1
     29937     29936     29938         0         1
     29940     29939     29941         0         1
     29943     29942     29944         0         1
     29946     29945     29947         0         1
     29949     29948     29950         0         1
     29952     29951     29953         0         1
     29955     29954     29956         0         1
     29958     29957     29959         0         1
     29961     29960     29962         0         1
     29964     29963     29965         0         1
     29967     29966     29968         0         1
     29970     29969     29971         0         1
     29973     29972     29974         0         1
     29976     29975     29977         0         1
     29979     29978     29980         0         1
     29982     29981     29983         0         1
     29985     29984     29986         0         1
     29988     29987     29989         0         1
     29991     29990     29992         0         1
     29994     29993     29995         0         1
     29997     29996     29998         0         1
     30000     29999     30001         0         1
     30003     30002     30004         0         1
     30006     30005     30007         0         1
     30009     30008     30010         0         1
     30012     30011     30013         0         1
     30015     30014     30016         0         1
     30018     30017     30019         0         1
     30021     30020     30022         0         1
     30024     30023     30025         0         1
     30027     30026     30028         0         1
     30030     30029     30031         0         1
     30033     30032     30034         0         1
     30036     30035     30037         0         1
     30039     30038     30040         0         1
     30042     30041     30043         0         1
     30045     30044     30046         0         1
     30048     30047     30049         0         1
     30051     30050     30052         0         1
     30054     30053     30055         0         1
     30057     30056     30058         0         1
     30060     30059     30061         0         1
     30063     30062     30064         0         1
     30066     30065     30067         0         1
     30069     30068     30070         0         1
     30072     30071     30073         0         1
     30075     30074     30076         0         1
     30078     30077     30079         0         1
     30081     30080     30082         0         1
     30084     30083     30085         0         1
     30087     30086     30088         0         1
     30090     30089     30091         0         1
     30093     30092     30094         0         1
     30096     30095     30097         0         1
     30099     30098     30100         0         1
     30102     30101     30103         0         1
     30105     30104     30106         0         1
     30108     30107     30109         0         1
     30111     30110     30112         0         1
     30114     30113     30115         0         1
     30117     30116     30118         0         1
     30120     30119     30121         0         1
     30123     30122     30124         0         1
     30126     30125     30127         0         1
     30129     30128     30130         0         1
     30132     30131     30133         0         1
     30135     30134     30136         0         1
     30138     30137     30139         0         1
     30141     30140     30142         0         1
     30144     30143     30145         0         1
     30147     30146     30148         0         1
     30150     30149     30151         0         1
     30153     30152     30154         0         1
     30156     30155     30157         0         1
     30159     30158     30160         0         1
     30162     30161     30163         0         1
     30165     30164     30166         0         1
     30168     30167     30169         0         1
     30171     30170     30172         0         1
     30174     30173     30175         0         1
     30177     30176     30178         0         1
     30180     30179     30181         0         1
     30183     30182     30184         0         1
     30186     30185     30187         0         1
     30189     30188     30190         0         1
     30192     30191     30193         0         1
     30195     30194     30196         0         1
     30198     30197     30199         0         1
     30201     30200     30202         0         1
     30204     30203     30205         0         1
     30207     30206     30208         0         1
     30210     30209     30211         0         1
     30213     30212     30214         0         1
     30216     30215     30217         0         1
     30219     30218     30220         0         1
     30222     30221     30223         0         1
     30225     30224     30226         0         1
     30228     30227     30229         0         1
     30231     30230     30232         0         1
     30234     30233     30235         0         1
     30237     30236     30238         0         1
     30240     30239     30241         0         1
     30243     30242     30244         0         1
     30246     30245     30247         0         1
     30249     30248     30250         0         1
     30252     30251     30253         0         1
     30255     30254     30256         0         1
     30258     30257     30259         0         1
     30261     30260     30262         0         1
     30264     30263     30265         0         1
     30267     30266     30268         0         1
     30270     30269     30271         0         1
     30273     30272     30274         0         1
     30276     30275     30277         0         1
     30279     30278     30280         0         1
     30282     30281     30283         0         1
     30285     30284     30286         0         1
     30288     30287     30289         0         1
     30291     30290     30292         0         1
     30294     30293     30295         0         1
     30297     30296     30298         0         1
     30300     30299     30301         0         1
     30303     30302     30304         0         1
     30306     30305     30307         0         1
     30309     30308     30310         0         1
     30312     30311     30313         0         1
     30315     30314     30316         0         1
     30318     30317     30319         0         1
     30321     30320     30322         0         1
     30324     30323     30325         0         1
     30327     30326     30328         0         1
     30330     30329     30331         0         1
     30333     30332     30334         0         1
     30336     30335     30337         0         1
     30339     30338     30340         0         1
     30342     30341     30343         0         1
     30345     30344     30346         0         1
     30348     30347     30349         0         1
     30351     30350     30352         0         1
     30354     30353     30355         0         1
     30357     30356     30358         0         1
     30360     30359     30361         0         1
     30363     30362     30364         0         1
     30366     30365     30367         0         1
     30369     30368     30370         0         1
     30372     30371     30373         0         1
     30375     30374     30376         0         1
     30378     30377     30379         0         1
     30381     30380     30382         0         1
     30384     30383     30385         0         1
     30387     30386     30388         0         1
     30390     30389     30391         0         1
     30393     30392     30394         0         1
     30396     30395     30397         0         1
     30399     30398     30400         0         1
     30402     30401     30403         0         1
     30405     30404     30406         0         1
     30408     30407     30409         0         1
     30411     30410     30412         0         1
     30414     30413     30415         0         1
     30417     30416     30418         0         1
     30420     30419     30421         0         1
     30423     30422     30424         0         1
     30426     30425     30427         0         1
     30429     30428     30430         0         1
     30432     30431     30433         0         1
     30435     30434     30436         0         1
     30438     30437     30439         0         1
     30441     30440     30442         0         1
     30444     30443     30445         0         1
     30447     30446     30448         0         1
     30450     30449     30451         0         1
     30453     30452     30454         0         1
     30456     30455     30457         0         1
     30459     30458     30460         0         1
     30462     30461     30463         0         1
     30465     30464     30466         0         1
     30468     30467     30469         0         1
     30471     30470     30472         0         1
     30474     30473     30475         0         1
     30477     30476     30478         0         1
     30480     30479     30481         0         1
     30483     30482     30484         0         1
     30486     30485     30487         0         1
     30489     30488     30490         0         1
     30492     30491     30493         0         1
     30495     30494     30496         0         1
     30498     30497     30499         0         1
     30501     30500     30502         0         1
     30504     30503     30505         0         1
     30507     30506     30508         0         1
     30510     30509     30511         0         1
     30513     30512     30514         0         1
     30516     30515     30517         0         1
     30519     30518     30520         0         1
     30522     30521     30523         0         1
     30525     30524     30526         0         1
     30528     30527     30529         0         1
     30531     30530     30532         0         1
     30534     30533     30535         0         1
     30537     30536     30538         0         1
     30540     30539     30541         0         1
     30543     30542     30544         0         1
     30546     30545     30547         0         1
     30549     30548     30550         0         1
     30552     30551     30553         0         1
     30555     30554     30556         0         1
     30558     30557     30559         0         1
     30561     30560     30562         0         1
     30564     30563     30565         0         1
     30567     30566     30568         0         1
     30570     30569     30571         0         1
     30573     30572     30574         0         1
     30576     30575     30577         0         1
     30579     30578     30580         0         1
     30582     30581     30583         0         1
     30585     30584     30586         0         1
     30588     30587     30589         0         1
     30591     30590     30592         0         1
     30594     30593     30595         0         1
     30597     30596     30598         0         1
     30600     30599     30601         0         1
     30603     30602     30604         0         1
     30606     30605     30607         0         1
     30609     30608     30610         0         1
     30612     30611     30613         0         1
     30615     30614     30616         0         1
     30618     30617     30619         0         1
     30621     30620     30622         0         1
     30624     30623     30625         0         1
     30627     30626     30628         0         1
     30630     30629     30631         0         1
     30633     30632     30634         0         1
     30636     30635     30637         0         1
     30639     30638     30640         0         1
     30642     30641     30643         0         1
     30645     30644     30646         0         1
     30648     30647     30649         0         1
     30651     30650     30652         0         1
     30654     30653     30655         0         1
     30657     30656     30658         0         1
     30660     30659     30661         0         1
     30663     30662     30664         0         1
     30666     30665     30667         0         1
     30669     30668     30670         0         1
     30672     30671     30673         0         1
     30675     30674     30676         0         1
     30678     30677     30679         0         1
     30681     30680     30682         0         1
     30684     30683     30685         0         1
     30687     30686     30688         0         1
     30690     30689     30691         0         1
     30693     30692     30694         0         1
     30696     30695     30697         0         1
     30699     30698     30700         0         1
     30702     30701     30703         0         1
     30705     30704     30706         0         1
     30708     30707     30709         0         1
     30711     30710     30712         0         1
     30714     30713     30715         0         1
     30717     30716     30718         0         1
     30720     30719     30721         0         1
     30723     30722     30724         0         1
     30726     30725     30727         0         1
     30729     30728     30730         0         1
     30732     30731     30733         0         1
     30735     30734     30736         0         1
     30738     30737     30739         0         1
     30741     30740     30742         0         1
     30744     30743     30745         0         1
     30747     30746     30748         0         1
     30750     30749     30751         0         1
     30753     30752     30754         0         1
     30756     30755     30757         0         1
     30759     30758     30760         0         1
     30762     30761     30763         0         1
     30765     30764     30766         0         1
     30768     30767     30769         0         1
     30771     30770     30772         0         1
     30774     30773     30775         0         1
     30777     30776     30778         0         1
     30780     30779     30781         0         1
     30783     30782     30784         0         1
     30786     30785     30787         0         1
     30789     30788     30790         0         1
     30792     30791     30793         0         1
     30795     30794     30796         0         1
     30798     30797     30799         0         1
     30801     30800     30802         0         1
     30804     30803     30805         0         1
     30807     30806     30808         0         1
     30810     30809     30811         0         1
     30813     30812     30814         0         1
     30816     30815     30817         0         1
     30819     30818     30820         0         1
     30822     30821     30823         0         1
     30825     30824     30826         0         1
     30828     30827     30829         0         1
     30831     30830     30832         0         1
     30834     30833     30835         0         1
     30837     30836     30838         0         1
     30840     30839     30841         0         1
     30843     30842     30844         0         1
     30846     30845     30847         0         1
     30849     30848     30850         0         1
     30852     30851     30853         0         1
     30855     30854     30856         0         1
     30858     30857     30859         0         1
     30861     30860     30862         0         1
     30864     30863     30865         0         1
     30867     30866     30868         0         1
     30870     30869     30871         0         1
     30873     30872     30874         0         1
     30876     30875     30877         0         1
     30879     30878     30880         0         1
     30882     30881     30883         0         1
     30885     30884     30886         0         1
     30888     30887     30889         0         1
     30891     30890     30892         0         1
     30894     30893     30895         0         1
     30897     30896     30898         0         1
     30900     30899     30901         0         1
     30903     30902     30904         0         1
     30906     30905     30907         0         1
     30909     30908     30910         0         1
     30912     30911     30913         0         1
     30915     30914     30916         0         1
     30918     30917     30919         0         1
     30921     30920     30922         0         1
     30924     30923     30925         0         1
     30927     30926     30928         0         1
     30930     30929     30931         0         1
     30933     30932     30934         0         1
     30936     30935     30937         0         1
     30939     30938     30940         0         1
     30942     30941     30943         0         1
     30945     30944     30946         0         1
     30948     30947     30949         0         1
     30951     30950     30952         0         1
     30954     30953     30955         0         1
     30957     30956     30958         0         1
     30960     30959     30961         0         1
     30963     30962     30964         0         1
     30966     30965     30967         0         1
     30969     30968     30970         0         1
     30972     30971     30973         0         1
     30975     30974     30976         0         1
     30978     30977     30979         0         1
     30981     30980     30982         0         1
     30984     30983     30985         0         1
     30987     30986     30988         0         1
     30990     30989     30991         0         1
     30993     30992     30994         0         1
     30996     30995     30997         0         1
     30999     30998     31000         0         1
     31002     31001     31003         0         1
     31005     31004     31006         0         1
     31008     31007     31009         0         1
     31011     31010     31012         0         1
     31014     31013     31015         0         1
     31017     31016     31018         0         1
     31020     31019     31021         0         1
     31023     31022     31024         0         1
     31026     31025     31027         0         1
     31029     31028     31030         0         1
     31032     31031     31033         0         1
     31035     31034     31036         0         1
     31038     31037     31039         0         1
     31041     31040     31042         0         1
     31044     31043     31045         0         1
     31047     31046     31048         0         1
     31050     31049     31051         0         1
     31053     31052     31054         0         1
     31056     31055     31057         0         1
     31059     31058     31060         0         1
     31062     31061     31063         0         1
     31065     31064     31066         0         1
     31068     31067     31069         0         1
     31071     31070     31072         0         1
     31074     31073     31075         0         1
     31077     31076     31078         0         1
     31080     31079     31081         0         1
     31083     31082     31084         0         1
     31086     31085     31087         0         1
     31089     31088     31090         0         1
     31092     31091     31093         0         1
     31095     31094     31096         0         1
     31098     31097     31099         0         1
     31101     31100     31102         0         1
     31104     31103     31105         0         1
     31107     31106     31108         0         1
     31110     31109     31111         0         1
     31113     31112     31114         0         1
     31116     31115     31117         0         1
     31119     31118     31120         0         1
     31122     31121     31123         0         1
     31125     31124     31126         0         1
     31128     31127     31129         0         1
     31131     31130     31132         0         1
     31134     31133     31135         0         1
     31137     31136     31138         0         1
     31140     31139     31141         0         1
     31143     31142     31144         0         1
     31146     31145     31147         0         1
     31149     31148     31150         0         1
     31152     31151     31153         0         1
     31155     31154     31156         0         1
     31158     31157     31159         0         1
     31161     31160     31162         0         1
     31164     31163     31165         0         1
     31167     31166     31168         0         1
     31170     31169     31171         0         1
     31173     31172     31174         0         1
     31176     31175     31177         0         1
     31179     31178     31180         0         1
     31182     31181     31183         0         1
     31185     31184     31186         0         1
     31188     31187     31189         0         1
     31191     31190     31192         0         1
     31194     31193     31195         0         1
     31197     31196     31198         0         1
     31200     31199     31201         0         1
     31203     31202     31204         0         1
     31206     31205     31207         0         1
     31209     31208     31210         0         1
     31212     31211     31213         0         1
     31215     31214     31216         0         1
     31218     31217     31219         0         1
     31221     31220     31222         0         1
     31224     31223     31225         0         1
     31227     31226     31228         0         1
     31230     31229     31231         0         1
     31233     31232     31234         0         1
     31236     31235     31237         0         1
     31239     31238     31240         0         1
     31242     31241     31243         0         1
     31245     31244     31246         0         1
     31248     31247     31249         0         1
     31251     31250     31252         0         1
     31254     31253     31255         0         1
     31257     31256     31258         0         1
     31260     31259     31261         0         1
     31263     31262     31264         0         1
     31266     31265     31267         0         1
     31269     31268     31270         0         1
     31272     31271     31273         0         1
     31275     31274     31276         0         1
     31278     31277     31279         0         1
     31281     31280     31282         0         1
     31284     31283     31285         0         1
     31287     31286     31288         0         1
     31290     31289     31291         0         1
     31293     31292     31294         0         1
     31296     31295     31297         0         1
     31299     31298     31300         0         1
     31302     31301     31303         0         1
     31305     31304     31306         0         1
     31308     31307     31309         0         1
     31311     31310     31312         0         1
     31314     31313     31315         0         1
     31317     31316     31318         0         1
     31320     31319     31321         0         1
     31323     31322     31324         0         1
     31326     31325     31327         0         1
     31329     31328     31330         0         1
     31332     31331     31333         0         1
     31335     31334     31336         0         1
     31338     31337     31339         0         1
     31341     31340     31342         0         1
     31344     31343     31345         0         1
     31347     31346     31348         0         1
     31350     31349     31351         0         1
     31353     31352     31354         0         1
     31356     31355     31357         0         1
     31359     31358     31360         0         1
     31362     31361     31363         0         1
     31365     31364     31366         0         1
     31368     31367     31369         0         1
     31371     31370     31372         0         1
     31374     31373     31375         0         1
     31377     31376     31378         0         1
     31380     31379     31381         0         1
     31383     31382     31384         0         1
     31386     31385     31387         0         1
     31389     31388     31390         0         1
     31392     31391     31393         0         1
     31395     31394     31396         0         1
     31398     31397     31399         0         1
     31401     31400     31402         0         1
     31404     31403     31405         0         1
     31407     31406     31408         0         1
     31410     31409     31411         0         1
     31413     31412     31414         0         1
     31416     31415     31417         0         1
     31419     31418     31420         0         1
     31422     31421     31423         0         1
     31425     31424     31426         0         1
     31428     31427     31429         0         1
     31431     31430     31432         0         1
     31434     31433     31435         0         1
     31437     31436     31438         0         1
     31440     31439     31441         0         1
     31443     31442     31444         0         1
     31446     31445     31447         0         1
     31449     31448     31450         0         1
     31452     31451     31453         0         1
     31455     31454     31456         0         1
     31458     31457     31459         0         1
     31461     31460     31462         0         1
     31464     31463     31465         0         1
     31467     31466     31468         0         1
     31470     31469     31471         0         1
     31473     31472     31474         0         1
     31476     31475     31477         0         1
     31479     31478     31480         0         1
     31482     31481     31483         0         1
     31485     31484     31486         0         1
     31488     31487     31489         0         1
     31491     31490     31492         0         1
     31494     31493     31495         0         1
     31497     31496     31498         0         1
     31500     31499     31501         0         1
     31503     31502     31504         0         1
     31506     31505     31507         0         1
     31509     31508     31510         0         1
     31512     31511     31513         0         1
     31515     31514     31516         0         1
     31518     31517     31519         0         1
     31521     31520     31522         0         1
     31524     31523     31525         0         1
     31527     31526     31528         0         1
     31530     31529     31531         0         1
     31533     31532     31534         0         1
     31536     31535     31537         0         1
     31539     31538     31540         0         1
     31542     31541     31543         0         1
     31545     31544     31546         0         1
     31548     31547     31549         0         1
     31551     31550     31552         0         1
     31554     31553     31555         0         1
     31557     31556     31558         0         1
     31560     31559     31561         0         1
     31563     31562     31564         0         1
     31566     31565     31567         0         1
     31569     31568     31570         0         1
     31572     31571     31573         0         1
     31575     31574     31576         0         1
     31578     31577     31579         0         1
     31581     31580     31582         0         1
     31584     31583     31585         0         1
     31587     31586     31588         0         1
     31590     31589     31591         0         1
     31593     31592     31594         0         1
     31596     31595     31597         0         1
     31599     31598     31600         0         1
     31602     31601     31603         0         1
     31605     31604     31606         0         1
     31608     31607     31609         0         1
     31611     31610     31612         0         1
     31614     31613     31615         0         1
     31617     31616     31618         0         1
     31620     31619     31621         0         1
     31623     31622     31624         0         1
     31626     31625     31627         0         1
     31629     31628     31630         0         1
     31632     31631     31633         0         1
     31635     31634     31636         0         1
     31638     31637     31639         0         1
     31641     31640     31642         0         1
     31644     31643     31645         0         1
     31647     31646     31648         0         1
     31650     31649     31651         0         1
     31653     31652     31654         0         1
     31656     31655     31657         0         1
     31659     31658     31660         0         1
     31662     31661     31663         0         1
     31665     31664     31666         0         1
     31668     31667     31669         0         1
     31671     31670     31672         0         1
     31674     31673     31675         0         1
     31677     31676     31678         0         1
     31680     31679     31681         0         1
     31683     31682     31684         0         1
     31686     31685     31687         0         1
     31689     31688     31690         0         1
     31692     31691     31693         0         1
     31695     31694     31696         0         1
     31698     31697     31699         0         1
     31701     31700     31702         0         1
     31704     31703     31705         0         1
     31707     31706     31708         0         1
     31710     31709     31711         0         1
     31713     31712     31714         0         1
     31716     31715     31717         0         1
     31719     31718     31720         0         1
     31722     31721     31723         0         1
     31725     31724     31726         0         1
     31728     31727     31729         0         1
     31731     31730     31732         0         1
     31734     31733     31735         0         1
     31737     31736     31738         0         1
     31740     31739     31741         0         1
     31743     31742     31744         0         1
     31746     31745     31747         0         1
     31749     31748     31750         0         1
     31752     31751     31753         0         1
     31755     31754     31756         0         1
     31758     31757     31759         0         1
     31761     31760     31762         0         1
     31764     31763     31765         0         1
     31767     31766     31768         0         1
     31770     31769     31771         0         1
     31773     31772     31774         0         1
     31776     31775     31777         0         1
     31779     31778     31780         0         1
     31782     31781     31783         0         1
     31785     31784     31786         0         1
     31788     31787     31789         0         1
     31791     31790     31792         0         1
     31794     31793     31795         0         1
     31797     31796     31798         0         1
     31800     31799     31801         0         1
     31803     31802     31804         0         1
     31806     31805     31807         0         1
     31809     31808     31810         0         1
     31812     31811     31813         0         1
     31815     31814     31816         0         1
     31818     31817     31819         0         1
     31821     31820     31822         0         1
     31824     31823     31825         0         1
     31827     31826     31828         0         1
     31830     31829     31831         0         1
     31833     31832     31834         0         1
     31836     31835     31837         0         1
     31839     31838     31840         0         1
     31842     31841     31843         0         1
     31845     31844     31846         0         1
     31848     31847     31849         0         1
     31851     31850     31852         0         1
     31854     31853     31855         0         1
     31857     31856     31858         0         1
     31860     31859     31861         0         1
     31863     31862     31864         0         1
     31866     31865     31867         0         1
     31869     31868     31870         0         1
     31872     31871     31873         0         1
     31875     31874     31876         0         1
     31878     31877     31879         0         1
     31881     31880     31882         0         1
     31884     31883     31885         0         1
     31887     31886     31888         0         1
     31890     31889     31891         0         1
     31893     31892     31894         0         1
     31896     31895     31897         0         1
     31899     31898     31900         0         1
     31902     31901     31903         0         1
     31905     31904     31906         0         1
     31908     31907     31909         0         1
     31911     31910     31912         0         1
     31914     31913     31915         0         1
     31917     31916     31918         0         1
     31920     31919     31921         0         1
     31923     31922     31924         0         1
     31926     31925     31927         0         1
     31929     31928     31930         0         1
     31932     31931     31933         0         1
     31935     31934     31936         0         1
     31938     31937     31939         0         1
     31941     31940     31942         0         1
     31944     31943     31945         0         1
     31947     31946     31948         0         1
     31950     31949     31951         0         1
     31953     31952     31954         0         1
     31956     31955     31957         0         1
     31959     31958     31960         0         1
     31962     31961     31963         0         1
     31965     31964     31966         0         1
     31968     31967     31969         0         1
     31971     31970     31972         0         1
     31974     31973     31975         0         1
     31977     31976     31978         0         1
     31980     31979     31981         0         1
     31983     31982     31984         0         1
     31986     31985     31987         0         1
     31989     31988     31990         0         1
     31992     31991     31993         0         1
     31995     31994     31996         0         1
     31998     31997     31999         0         1
     32001     32000     32002         0         1
     32004     32003     32005         0         1
     32007     32006     32008         0         1
     32010     32009     32011         0         1
     32013     32012     32014         0         1
     32016     32015     32017         0         1
     32019     32018     32020         0         1
     32022     32021     32023         0         1
     32025     32024     32026         0         1
     32028     32027     32029         0         1
     32031     32030     32032         0         1
     32034     32033     32035         0         1
     32037     32036     32038         0         1
     32040     32039     32041         0         1
     32043     32042     32044         0         1
     32046     32045     32047         0         1
     32049     32048     32050         0         1
     32052     32051     32053         0         1
     32055     32054     32056         0         1
     32058     32057     32059         0         1
     32061     32060     32062         0         1
     32064     32063     32065         0         1
     32067     32066     32068         0         1
     32070     32069     32071         0         1
     32073     32072     32074         0         1
     32076     32075     32077         0         1
     32079     32078     32080         0         1
     32082     32081     32083         0         1
     32085     32084     32086         0         1
     32088     32087     32089         0         1
     32091     32090     32092         0         1
     32094     32093     32095         0         1
     32097     32096     32098         0         1
     32100     32099     32101         0         1
     32103     32102     32104         0         1
     32106     32105     32107         0         1
     32109     32108     32110         0         1
     32112     32111     32113         0         1
     32115     32114     32116         0         1
     32118     32117     32119         0         1
     32121     32120     32122         0         1
     32124     32123     32125         0         1
     32127     32126     32128         0         1
     32130     32129     32131         0         1
     32133     32132     32134         0         1
     32136     32135     32137         0         1
     32139     32138     32140         0         1
     32142     32141     32143         0         1
     32145     32144     32146         0         1
     32148     32147     32149         0         1
     32151     32150     32152         0         1
     32154     32153     32155         0         1
     32157     32156     32158         0         1
     32160     32159     32161         0         1
     32163     32162     32164         0         1
     32166     32165     32167         0         1
     32169     32168     32170         0         1
     32172     32171     32173         0         1
     32175     32174     32176         0         1
     32178     32177     32179         0         1
     32181     32180     32182         0         1
     32184     32183     32185         0         1
     32187     32186     32188         0         1
     32190     32189     32191         0         1
     32193     32192     32194         0         1
     32196     32195     32197         0         1
     32199     32198     32200         0         1
     32202     32201     32203         0         1
     32205     32204     32206         0         1
     32208     32207     32209         0         1
     32211     32210     32212         0         1
     32214     32213     32215         0         1
     32217     32216     32218         0         1
     32220     32219     32221         0         1
     32223     32222     32224         0         1
     32226     32225     32227         0         1
     32229     32228     32230         0         1
     32232     32231     32233         0         1
     32235     32234     32236         0         1
     32238     32237     32239         0         1
     32241     32240     32242         0         1
     32244     32243     32245         0         1
     32247     32246     32248         0         1
     32250     32249     32251         0         1
     32253     32252     32254         0         1
     32256     32255     32257         0         1
     32259     32258     32260         0         1
     32262     32261     32263         0         1
     32265     32264     32266         0         1
     32268     32267     32269         0         1
     32271     32270     32272         0         1
     32274     32273     32275         0         1
     32277     32276     32278         0         1
     32280     32279     32281         0         1
     32283     32282     32284         0         1
     32286     32285     32287         0         1
     32289     32288     32290         0         1
     32292     32291     32293         0         1
     32295     32294     32296         0         1
     32298     32297     32299         0         1
     32301     32300     32302         0         1
     32304     32303     32305         0         1
     32307     32306     32308         0         1
     32310     32309     32311         0         1
     32313     32312     32314         0         1
     32316     32315     32317         0         1
     32319     32318     32320         0         1
     32322     32321     32323         0         1
     32325     32324     32326         0         1
     32328     32327     32329         0         1
     32331     32330     32332         0         1
     32334     32333     32335         0         1
     32337     32336     32338         0         1
     32340     32339     32341         0         1
     32343     32342     32344         0         1
     32346     32345     32347         0         1
     32349     32348     32350         0         1
     32352     32351     32353         0         1
     32355     32354     32356         0         1
     32358     32357     32359         0         1
     32361     32360     32362         0         1
     32364     32363     32365         0         1
     32367     32366     32368         0         1
     32370     32369     32371         0         1
     32373     32372     32374         0         1
     32376     32375     32377         0         1
     32379     32378     32380         0         1
     32382     32381     32383         0         1
     32385     32384     32386         0         1
     32388     32387     32389         0         1
     32391     32390     32392         0         1
     32394     32393     32395         0         1
     32397     32396     32398         0         1
     32400     32399     32401         0         1
     32403     32402     32404         0         1
     32406     32405     32407         0         1
     32409     32408     32410         0         1
     32412     32411     32413         0         1
     32415     32414     32416         0         1
     32418     32417     32419         0         1
     32421     32420     32422         0         1
     32424     32423     32425         0         1
     32427     32426     32428         0         1
     32430     32429     32431         0         1
     32433     32432     32434         0         1
     32436     32435     32437         0         1
     32439     32438     32440         0         1
     32442     32441     32443         0         1
     32445     32444     32446         0         1
     32448     32447     32449         0         1
     32451     32450     32452         0         1
     32454     32453     32455         0         1
     32457     32456     32458         0         1
     32460     32459     32461         0         1
     32463     32462     32464         0         1
     32466     32465     32467         0         1
     32469     32468     32470         0         1
     32472     32471     32473         0         1
     32475     32474     32476         0         1
     32478     32477     32479         0         1
     32481     32480     32482         0         1
     32484     32483     32485         0         1
     32487     32486     32488         0         1
     32490     32489     32491         0         1
     32493     32492     32494         0         1
     32496     32495     32497         0         1
     32499     32498     32500         0         1
     32502     32501     32503         0         1
     32505     32504     32506         0         1
     32508     32507     32509         0         1
     32511     32510     32512         0         1
     32514     32513     32515         0         1
     32517     32516     32518         0         1
     32520     32519     32521         0         1
     32523     32522     32524         0         1
     32526     32525     32527         0         1
     32529     32528     32530         0         1
     32532     32531     32533         0         1
     32535     32534     32536         0         1
     32538     32537     32539         0         1
     32541     32540     32542         0         1
     32544     32543     32545         0         1
     32547     32546     32548         0         1
     32550     32549     32551         0         1
     32553     32552     32554         0         1
     32556     32555     32557         0         1
     32559     32558     32560         0         1
     32562     32561     32563         0         1
     32565     32564     32566         0         1
     32568     32567     32569         0         1
     32571     32570     32572         0         1
     32574     32573     32575         0         1
     32577     32576     32578         0         1
     32580     32579     32581         0         1
     32583     32582     32584         0         1
     32586     32585     32587         0         1
     32589     32588     32590         0         1
     32592     32591     32593         0         1
     32595     32594     32596         0         1
     32598     32597     32599         0         1
     32601     32600     32602         0         1
     32604     32603     32605         0         1
     32607     32606     32608         0         1
     32610     32609     32611         0         1
     32613     32612     32614         0         1
     32616     32615     32617         0         1
     32619     32618     32620         0         1
     32622     32621     32623         0         1
     32625     32624     32626         0         1
     32628     32627     32629         0         1
     32631     32630     32632         0         1
     32634     32633     32635         0         1
     32637     32636     32638         0         1
     32640     32639     32641         0         1
     32643     32642     32644         0         1
     32646     32645     32647         0         1
     32649     32648     32650         0         1
     32652     32651     32653         0         1
     32655     32654     32656         0         1
     32658     32657     32659         0         1
     32661     32660     32662         0         1
     32664     32663     32665         0         1
     32667     32666     32668         0         1
     32670     32669     32671         0         1
     32673     32672     32674         0         1
     32676     32675     32677         0         1
     32679     32678     32680         0         1
     32682     32681     32683         0         1
     32685     32684     32686         0         1
     32688     32687     32689         0         1
     32691     32690     32692         0         1
     32694     32693     32695         0         1
     32697     32696     32698         0         1
     32700     32699     32701         0         1
     32703     32702     32704         0         1
     32706     32705     32707         0         1
     32709     32708     32710         0         1
     32712     32711     32713         0         1
     32715     32714     32716         0         1
     32718     32717     32719         0         1
     32721     32720     32722         0         1
     32724     32723     32725         0         1
     32727     32726     32728         0         1
     32730     32729     32731         0         1
     32733     32732     32734         0         1
     32736     32735     32737         0         1
     32739     32738     32740         0         1
     32742     32741     32743         0         1
     32745     32744     32746         0         1
     32748     32747     32749         0         1
     32751     32750     32752         0         1
     32754     32753     32755         0         1
     32757     32756     32758         0         1
     32760     32759     32761         0         1
     32763     32762     32764         0         1
     32766     32765     32767         0         1
     32769     32768     32770         0         1
     32772     32771     32773         0         1
     32775     32774     32776         0         1
     32778     32777     32779         0         1
     32781     32780     32782         0         1
     32784     32783     32785         0         1
     32787     32786     32788         0         1
     32790     32789     32791         0         1
     32793     32792     32794         0         1
     32796     32795     32797         0         1
     32799     32798     32800         0         1
     32802     32801     32803         0         1
     32805     32804     32806         0         1
     32808     32807     32809         0         1
     32811     32810     32812         0         1
     32814     32813     32815         0         1
     32817     32816     32818         0         1
     32820     32819     32821         0         1
     32823     32822     32824         0         1
     32826     32825     32827         0         1
     32829     32828     32830         0         1
     32832     32831     32833         0         1
     32835     32834     32836         0         1
     32838     32837     32839         0         1
     32841     32840     32842         0         1
     32844     32843     32845         0         1
     32847     32846     32848         0         1
     32850     32849     32851         0         1
     32853     32852     32854         0         1
     32856     32855     32857         0         1
     32859     32858     32860         0         1
     32862     32861     32863         0         1
     32865     32864     32866         0         1
     32868     32867     32869         0         1
     32871     32870     32872         0         1
     32874     32873     32875         0         1
     32877     32876     32878         0         1
     32880     32879     32881         0         1
     32883     32882     32884         0         1
     32886     32885     32887         0         1
     32889     32888     32890         0         1
     32892     32891     32893         0         1
     32895     32894     32896         0         1
     32898     32897     32899         0         1
     32901     32900     32902         0         1
     32904     32903     32905         0         1
     32907     32906     32908         0         1
     32910     32909     32911         0         1
     32913     32912     32914         0         1
     32916     32915     32917         0         1
     32919     32918     32920         0         1
     32922     32921     32923         0         1
     32925     32924     32926         0         1
     32928     32927     32929         0         1
     32931     32930     32932         0         1
     32934     32933     32935         0         1
     32937     32936     32938         0         1
     32940     32939     32941         0         1
     32943     32942     32944         0         1
     32946     32945     32947         0         1
     32949     32948     32950         0         1
     32952     32951     32953         0         1
     32955     32954     32956         0         1
     32958     32957     32959         0         1
     32961     32960     32962         0         1
     32964     32963     32965         0         1
     32967     32966     32968         0         1
     32970     32969     32971         0         1
     32973     32972     32974         0         1
     32976     32975     32977         0         1
     32979     32978     32980         0         1
     32982     32981     32983         0         1
     32985     32984     32986         0         1
     32988     32987     32989         0         1
     32991     32990     32992         0         1
     32994     32993     32995         0         1
     32997     32996     32998         0         1
     33000     32999     33001         0         1
     33003     33002     33004         0         1
     33006     33005     33007         0         1
     33009     33008     33010         0         1
     33012     33011     33013         0         1
     33015     33014     33016         0         1
     33018     33017     33019         0         1
     33021     33020     33022         0         1
     33024     33023     33025         0         1
     33027     33026     33028         0         1
     33030     33029     33031         0         1
     33033     33032     33034         0         1
     33036     33035     33037         0         1
     33039     33038     33040         0         1
     33042     33041     33043         0         1
     33045     33044     33046         0         1
     33048     33047     33049         0         1
     33051     33050     33052         0         1
     33054     33053     33055         0         1
     33057     33056     33058         0         1
     33060     33059     33061         0         1
     33063     33062     33064         0         1
     33066     33065     33067         0         1
     33069     33068     33070         0         1
     33072     33071     33073         0         1
     33075     33074     33076         0         1
     33078     33077     33079         0         1
     33081     33080     33082         0         1
     33084     33083     33085         0         1
     33087     33086     33088         0         1
     33090     33089     33091         0         1
     33093     33092     33094         0         1
     33096     33095     33097         0         1
     33099     33098     33100         0         1
     33102     33101     33103         0         1
     33105     33104     33106         0         1
     33108     33107     33109         0         1
     33111     33110     33112         0         1
     33114     33113     33115         0         1
     33117     33116     33118         0         1
     33120     33119     33121         0         1
     33123     33122     33124         0         1
     33126     33125     33127         0         1
     33129     33128     33130         0         1
     33132     33131     33133         0         1
     33135     33134     33136         0         1
     33138     33137     33139         0         1
     33141     33140     33142         0         1
     33144     33143     33145         0         1
     33147     33146     33148         0         1
     33150     33149     33151         0         1
     33153     33152     33154         0         1
     33156     33155     33157         0         1
     33159     33158     33160         0         1
     33162     33161     33163         0         1
     33165     33164     33166         0         1
     33168     33167     33169         0         1
     33171     33170     33172         0         1
     33174     33173     33175         0         1
     33177     33176     33178         0         1
     33180     33179     33181         0         1
     33183     33182     33184         0         1
     33186     33185     33187         0         1
     33189     33188     33190         0         1
     33192     33191     33193         0         1
     33195     33194     33196         0         1
     33198     33197     33199         0         1
     33201     33200     33202         0         1
     33204     33203     33205         0         1
     33207     33206     33208         0         1
     33210     33209     33211         0         1
     33213     33212     33214         0         1
     33216     33215     33217         0         1
     33219     33218     33220         0         1
     33222     33221     33223         0         1
     33225     33224     33226         0         1
     33228     33227     33229         0         1
     33231     33230     33232         0         1
     33234     33233     33235         0         1
     33237     33236     33238         0         1
     33240     33239     33241         0         1
     33243     33242     33244         0         1
     33246     33245     33247         0         1
     33249     33248     33250         0         1
     33252     33251     33253         0         1
     33255     33254     33256         0         1
     33258     33257     33259         0         1
     33261     33260     33262         0         1
     33264     33263     33265         0         1
     33267     33266     33268         0         1
     33270     33269     33271         0         1
     33273     33272     33274         0         1
     33276     33275     33277         0         1
     33279     33278     33280         0         1
     33282     33281     33283         0         1
     33285     33284     33286         0         1
     33288     33287     33289         0         1
     33291     33290     33292         0         1
     33294     33293     33295         0         1
     33297     33296     33298         0         1
     33300     33299     33301         0         1
     33303     33302     33304         0         1
     33306     33305     33307         0         1
     33309     33308     33310         0         1
     33312     33311     33313         0         1
     33315     33314     33316         0         1
     33318     33317     33319         0         1
     33321     33320     33322         0         1
     33324     33323     33325         0         1
     33327     33326     33328         0         1
     33330     33329     33331         0         1
     33333     33332     33334         0         1
     33336     33335     33337         0         1
     33339     33338     33340         0         1
     33342     33341     33343         0         1
     33345     33344     33346         0         1
     33348     33347     33349         0         1
     33351     33350     33352         0         1
     33354     33353     33355         0         1
     33357     33356     33358         0         1
     33360     33359     33361         0         1
     33363     33362     33364         0         1
     33366     33365     33367         0         1
     33369     33368     33370         0         1
     33372     33371     33373         0         1
     33375     33374     33376         0         1
     33378     33377     33379         0         1
     33381     33380     33382         0         1
     33384     33383     33385         0         1
     33387     33386     33388         0         1
     33390     33389     33391         0         1
     33393     33392     33394         0         1
     33396     33395     33397         0         1
     33399     33398     33400         0         1
     33402     33401     33403         0         1
     33405     33404     33406         0         1
     33408     33407     33409         0         1
     33411     33410     33412         0         1
     33414     33413     33415         0         1
     33417     33416     33418         0         1
     33420     33419     33421         0         1
     33423     33422     33424         0         1
     33426     33425     33427         0         1
     33429     33428     33430         0         1
     33432     33431     33433         0         1
     33435     33434     33436         0         1
     33438     33437     33439         0         1
     33441     33440     33442         0         1
     33444     33443     33445         0         1
     33447     33446     33448         0         1
     33450     33449     33451         0         1
     33453     33452     33454         0         1
     33456     33455     33457         0         1
     33459     33458     33460         0         1
     33462     33461     33463         0         1
     33465     33464     33466         0         1
     33468     33467     33469         0         1
     33471     33470     33472         0         1
     33474     33473     33475         0         1
     33477     33476     33478         0         1
     33480     33479     33481         0         1
     33483     33482     33484         0         1
     33486     33485     33487         0         1
     33489     33488     33490         0         1
     33492     33491     33493         0         1
     33495     33494     33496         0         1
     33498     33497     33499         0         1
     33501     33500     33502         0         1
     33504     33503     33505         0         1
     33507     33506     33508         0         1
     33510     33509     33511         0         1
     33513     33512     33514         0         1
     33516     33515     33517         0         1
     33519     33518     33520         0         1
     33522     33521     33523         0         1
     33525     33524     33526         0         1
     33528     33527     33529         0         1
     33531     33530     33532         0         1
     33534     33533     33535         0         1
     33537     33536     33538         0         1
     33540     33539     33541         0         1
     33543     33542     33544         0         1
     33546     33545     33547         0         1
     33549     33548     33550         0         1
     33552     33551     33553         0         1
     33555     33554     33556         0         1
     33558     33557     33559         0         1
     33561     33560     33562         0         1
     33564     33563     33565         0         1
     33567     33566     33568         0         1
     33570     33569     33571         0         1
     33573     33572     33574         0         1
     33576     33575     33577         0         1
     33579     33578     33580         0         1
     33582     33581     33583         0         1
     33585     33584     33586         0         1
     33588     33587     33589         0         1
     33591     33590     33592         0         1
     33594     33593     33595         0         1
     33597     33596     33598         0         1
     33600     33599     33601         0         1
     33603     33602     33604         0         1
     33606     33605     33607         0         1
     33609     33608     33610         0         1
     33612     33611     33613         0         1
     33615     33614     33616         0         1
     33618     33617     33619         0         1
     33621     33620     33622         0         1
     33624     33623     33625         0         1
     33627     33626     33628         0         1
     33630     33629     33631         0         1
     33633     33632     33634         0         1
     33636     33635     33637         0         1
     33639     33638     33640         0         1
     33642     33641     33643         0         1
     33645     33644     33646         0         1
     33648     33647     33649         0         1
     33651     33650     33652         0         1
     33654     33653     33655         0         1
     33657     33656     33658         0         1
     33660     33659     33661         0         1
     33663     33662     33664         0         1
     33666     33665     33667         0         1
     33669     33668     33670         0         1
     33672     33671     33673         0         1
     33675     33674     33676         0         1
     33678     33677     33679         0         1
     33681     33680     33682         0         1
     33684     33683     33685         0         1
     33687     33686     33688         0         1
     33690     33689     33691         0         1
     33693     33692     33694         0         1
     33696     33695     33697         0         1
     33699     33698     33700         0         1
     33702     33701     33703         0         1
     33705     33704     33706         0         1
     33708     33707     33709         0         1
     33711     33710     33712         0         1
     33714     33713     33715         0         1
     33717     33716     33718         0         1
     33720     33719     33721         0         1
     33723     33722     33724         0         1
     33726     33725     33727         0         1
     33729     33728     33730         0         1
     33732     33731     33733         0         1
     33735     33734     33736         0         1
     33738     33737     33739         0         1
     33741     33740     33742         0         1
     33744     33743     33745         0         1
     33747     33746     33748         0         1
     33750     33749     33751         0         1
     33753     33752     33754         0         1
     33756     33755     33757         0         1
     33759     33758     33760         0         1
     33762     33761     33763         0         1
     33765     33764     33766         0         1
     33768     33767     33769         0         1
     33771     33770     33772         0         1
     33774     33773     33775         0         1
     33777     33776     33778         0         1
     33780     33779     33781         0         1
     33783     33782     33784         0         1
     33786     33785     33787         0         1
     33789     33788     33790         0         1
     33792     33791     33793         0         1
     33795     33794     33796         0         1
     33798     33797     33799         0         1
     33801     33800     33802         0         1
     33804     33803     33805         0         1
     33807     33806     33808         0         1
     33810     33809     33811         0         1
     33813     33812     33814         0         1
     33816     33815     33817         0         1
     33819     33818     33820         0         1
     33822     33821     33823         0         1
     33825     33824     33826         0         1
     33828     33827     33829         0         1
     33831     33830     33832         0         1
     33834     33833     33835         0         1
     33837     33836     33838         0         1
     33840     33839     33841         0         1
     33843     33842     33844         0         1
     33846     33845     33847         0         1
     33849     33848     33850         0         1
     33852     33851     33853         0         1
     33855     33854     33856         0         1
     33858     33857     33859         0         1
     33861     33860     33862         0         1
     33864     33863     33865         0         1
     33867     33866     33868         0         1
     33870     33869     33871         0         1
     33873     33872     33874         0         1
     33876     33875     33877         0         1
     33879     33878     33880         0         1
     33882     33881     33883         0         1
     33885     33884     33886         0         1
     33888     33887     33889         0         1
     33891     33890     33892         0         1
     33894     33893     33895         0         1
     33897     33896     33898         0         1
     33900     33899     33901         0         1
     33903     33902     33904         0         1
     33906     33905     33907         0         1
     33909     33908     33910         0         1
     33912     33911     33913         0         1
     33915     33914     33916         0         1
     33918     33917     33919         0         1
     33921     33920     33922         0         1
     33924     33923     33925         0         1
     33927     33926     33928         0         1
     33930     33929     33931         0         1
     33933     33932     33934         0         1
     33936     33935     33937         0         1
     33939     33938     33940         0         1
     33942     33941     33943         0         1
     33945     33944     33946         0         1
     33948     33947     33949         0         1
     33951     33950     33952         0         1
     33954     33953     33955         0         1
     33957     33956     33958         0         1
     33960     33959     33961         0         1
     33963     33962     33964         0         1
     33966     33965     33967         0         1
     33969     33968     33970         0         1
     33972     33971     33973         0         1
     33975     33974     33976         0         1
     33978     33977     33979         0         1
     33981     33980     33982         0         1
     33984     33983     33985         0         1
     33987     33986     33988         0         1
     33990     33989     33991         0         1
     33993     33992     33994         0         1
     33996     33995     33997         0         1
     33999     33998     34000         0         1
     34002     34001     34003         0         1
     34005     34004     34006         0         1
     34008     34007     34009         0         1
     34011     34010     34012         0         1
     34014     34013     34015         0         1
     34017     34016     34018         0         1
     34020     34019     34021         0         1
     34023     34022     34024         0         1
     34026     34025     34027         0         1
     34029     34028     34030         0         1
     34032     34031     34033         0         1
     34035     34034     34036         0         1
     34038     34037     34039         0         1
     34041     34040     34042         0         1
     34044     34043     34045         0         1
     34047     34046     34048         0         1
     34050     34049     34051         0         1
     34053     34052     34054         0         1
     34056     34055     34057         0         1
     34059     34058     34060         0         1
     34062     34061     34063         0         1
     34065     34064     34066         0         1
     34068     34067     34069         0         1
     34071     34070     34072         0         1
     34074     34073     34075         0         1
     34077     34076     34078         0         1
     34080     34079     34081         0         1
     34083     34082     34084         0         1
     34086     34085     34087         0         1
     34089     34088     34090         0         1
     34092     34091     34093         0         1
     34095     34094     34096         0         1
     34098     34097     34099         0         1
     34101     34100     34102         0         1
     34104     34103     34105         0         1
     34107     34106     34108         0         1
     34110     34109     34111         0         1
     34113     34112     34114         0         1
     34116     34115     34117         0         1
     34119     34118     34120         0         1
     34122     34121     34123         0         1
     34125     34124     34126         0         1
     34128     34127     34129         0         1
     34131     34130     34132         0         1
     34134     34133     34135         0         1
     34137     34136     34138         0         1
     34140     34139     34141         0         1
     34143     34142     34144         0         1
     34146     34145     34147         0         1
     34149     34148     34150         0         1
     34152     34151     34153         0         1
     34155     34154     34156         0         1
     34158     34157     34159         0         1
     34161     34160     34162         0         1
     34164     34163     34165         0         1
     34167     34166     34168         0         1
     34170     34169     34171         0         1
     34173     34172     34174         0         1
     34176     34175     34177         0         1
     34179     34178     34180         0         1
     34182     34181     34183         0         1
     34185     34184     34186         0         1
     34188     34187     34189         0         1
     34191     34190     34192         0         1
     34194     34193     34195         0         1
     34197     34196     34198         0         1
     34200     34199     34201         0         1
     34203     34202     34204         0         1
     34206     34205     34207         0         1
     34209     34208     34210         0         1
     34212     34211     34213         0         1
     34215     34214     34216         0         1
     34218     34217     34219         0         1
     34221     34220     34222         0         1
     34224     34223     34225         0         1
     34227     34226     34228         0         1
     34230     34229     34231         0         1
     34233     34232     34234         0         1
     34236     34235     34237         0         1
     34239     34238     34240         0         1
     34242     34241     34243         0         1
     34245     34244     34246         0         1
     34248     34247     34249         0         1
     34251     34250     34252         0         1
     34254     34253     34255         0         1
     34257     34256     34258         0         1
     34260     34259     34261         0         1
     34263     34262     34264         0         1
     34266     34265     34267         0         1
     34269     34268     34270         0         1
     34272     34271     34273         0         1
     34275     34274     34276         0         1
     34278     34277     34279         0         1
     34281     34280     34282         0         1
     34284     34283     34285         0         1
     34287     34286     34288         0         1
     34290     34289     34291         0         1
     34293     34292     34294         0         1
     34296     34295     34297         0         1
     34299     34298     34300         0         1
     34302     34301     34303         0         1
     34305     34304     34306         0         1
     34308     34307     34309         0         1
     34311     34310     34312         0         1
     34314     34313     34315         0         1
     34317     34316     34318         0         1
     34320     34319     34321         0         1
     34323     34322     34324         0         1
     34326     34325     34327         0         1
     34329     34328     34330         0         1
     34332     34331     34333         0         1
     34335     34334     34336         0         1
     34338     34337     34339         0         1
     34341     34340     34342         0         1
     34344     34343     34345         0         1
     34347     34346     34348         0         1
     34350     34349     34351         0         1
     34353     34352     34354         0         1
     34356     34355     34357         0         1
     34359     34358     34360         0         1
     34362     34361     34363         0         1
     34365     34364     34366         0         1
     34368     34367     34369         0         1
     34371     34370     34372         0         1
     34374     34373     34375         0         1
     34377     34376     34378         0         1
     34380     34379     34381         0         1
     34383     34382     34384         0         1
     34386     34385     34387         0         1
     34389     34388     34390         0         1
     34392     34391     34393         0         1
     34395     34394     34396         0         1
     34398     34397     34399         0         1
     34401     34400     34402         0         1
     34404     34403     34405         0         1
     34407     34406     34408         0         1
     34410     34409     34411         0         1
     34413     34412     34414         0         1
     34416     34415     34417         0         1
     34419     34418     34420         0         1
     34422     34421     34423         0         1
     34425     34424     34426         0         1
     34428     34427     34429         0         1
     34431     34430     34432         0         1
     34434     34433     34435         0         1
     34437     34436     34438         0         1
     34440     34439     34441         0         1
     34443     34442     34444         0         1
     34446     34445     34447         0         1
     34449     34448     34450         0         1
     34452     34451     34453         0         1
     34455     34454     34456         0         1
     34458     34457     34459         0         1
     34461     34460     34462         0         1
     34464     34463     34465         0         1
     34467     34466     34468         0         1
     34470     34469     34471         0         1
     34473     34472     34474         0         1
     34476     34475     34477         0         1
     34479     34478     34480         0         1
     34482     34481     34483         0         1
     34485     34484     34486         0         1
     34488     34487     34489         0         1
     34491     34490     34492         0         1
     34494     34493     34495         0         1
     34497     34496     34498         0         1
     34500     34499     34501         0         1
     34503     34502     34504         0         1
     34506     34505     34507         0         1
     34509     34508     34510         0         1
     34512     34511     34513         0         1
     34515     34514     34516         0         1
     34518     34517     34519         0         1
     34521     34520     34522         0         1
     34524     34523     34525         0         1
     34527     34526     34528         0         1
     34530     34529     34531         0         1
     34533     34532     34534         0         1
     34536     34535     34537         0         1
     34539     34538     34540         0         1
     34542     34541     34543         0         1
     34545     34544     34546         0         1
     34548     34547     34549         0         1
     34551     34550     34552         0         1
     34554     34553     34555         0         1
     34557     34556     34558         0         1
     34560     34559     34561         0         1
     34563     34562     34564         0         1
     34566     34565     34567         0         1
     34569     34568     34570         0         1
     34572     34571     34573         0         1
     34575     34574     34576         0         1
     34578     34577     34579         0         1
     34581     34580     34582         0         1
     34584     34583     34585         0         1
     34587     34586     34588         0         1
     34590     34589     34591         0         1
     34593     34592     34594         0         1
     34596     34595     34597         0         1
     34599     34598     34600         0         1
     34602     34601     34603         0         1
     34605     34604     34606         0         1
     34608     34607     34609         0         1
     34611     34610     34612         0         1
     34614     34613     34615         0         1
     34617     34616     34618         0         1
     34620     34619     34621         0         1
     34623     34622     34624         0         1
     34626     34625     34627         0         1
     34629     34628     34630         0         1
     34632     34631     34633         0         1
     34635     34634     34636         0         1
     34638     34637     34639         0         1
     34641     34640     34642         0         1
     34644     34643     34645         0         1
     34647     34646     34648         0         1
     34650     34649     34651         0         1
     34653     34652     34654         0         1
     34656     34655     34657         0         1
     34659     34658     34660         0         1
     34662     34661     34663         0         1
     34665     34664     34666         0         1
     34668     34667     34669         0         1
     34671     34670     34672         0         1
     34674     34673     34675         0         1
     34677     34676     34678         0         1
     34680     34679     34681         0         1
     34683     34682     34684         0         1
     34686     34685     34687         0         1
     34689     34688     34690         0         1
     34692     34691     34693         0         1
     34695     34694     34696         0         1
     34698     34697     34699         0         1
     34701     34700     34702         0         1
     34704     34703     34705         0         1
     34707     34706     34708         0         1
     34710     34709     34711         0         1
     34713     34712     34714         0         1
     34716     34715     34717         0         1
     34719     34718     34720         0         1
     34722     34721     34723         0         1
     34725     34724     34726         0         1
     34728     34727     34729         0         1
     34731     34730     34732         0         1
     34734     34733     34735         0         1
     34737     34736     34738         0         1
     34740     34739     34741         0         1
     34743     34742     34744         0         1
     34746     34745     34747         0         1
     34749     34748     34750         0         1
     34752     34751     34753         0         1
     34755     34754     34756         0         1
     34758     34757     34759         0         1
     34761     34760     34762         0         1
     34764     34763     34765         0         1
     34767     34766     34768         0         1
     34770     34769     34771         0         1
     34773     34772     34774         0         1
     34776     34775     34777         0         1
     34779     34778     34780         0         1
     34782     34781     34783         0         1
     34785     34784     34786         0         1
     34788     34787     34789         0         1
     34791     34790     34792         0         1
     34794     34793     34795         0         1
     34797     34796     34798         0         1
     34800     34799     34801         0         1
     34803     34802     34804         0         1
     34806     34805     34807         0         1
     34809     34808     34810         0         1
     34812     34811     34813         0         1
     34815     34814     34816         0         1
     34818     34817     34819         0         1
     34821     34820     34822         0         1
     34824     34823     34825         0         1
     34827     34826     34828         0         1
     34830     34829     34831         0         1
     34833     34832     34834         0         1
     34836     34835     34837         0         1
     34839     34838     34840         0         1
     34842     34841     34843         0         1
     34845     34844     34846         0         1
     34848     34847     34849         0         1
     34851     34850     34852         0         1
     34854     34853     34855         0         1
     34857     34856     34858         0         1
     34860     34859     34861         0         1
     34863     34862     34864         0         1
     34866     34865     34867         0         1
     34869     34868     34870         0         1
     34872     34871     34873         0         1
     34875     34874     34876         0         1
     34878     34877     34879         0         1
     34881     34880     34882         0         1
     34884     34883     34885         0         1
     34887     34886     34888         0         1
     34890     34889     34891         0         1
     34893     34892     34894         0         1
     34896     34895     34897         0         1
     34899     34898     34900         0         1
     34902     34901     34903         0         1
     34905     34904     34906         0         1
     34908     34907     34909         0         1
     34911     34910     34912         0         1
     34914     34913     34915         0         1
     34917     34916     34918         0         1
     34920     34919     34921         0         1
     34923     34922     34924         0         1
     34926     34925     34927         0         1
     34929     34928     34930         0         1
     34932     34931     34933         0         1
     34935     34934     34936         0         1
     34938     34937     34939         0         1
     34941     34940     34942         0         1
     34944     34943     34945         0         1
     34947     34946     34948         0         1
     34950     34949     34951         0         1
     34953     34952     34954         0         1
     34956     34955     34957         0         1
     34959     34958     34960         0         1
     34962     34961     34963         0         1
     34965     34964     34966         0         1
     34968     34967     34969         0         1
     34971     34970     34972         0         1
     34974     34973     34975         0         1
     34977     34976     34978         0         1
     34980     34979     34981         0         1
     34983     34982     34984         0         1
     34986     34985     34987         0         1
     34989     34988     34990         0         1
     34992     34991     34993         0         1
     34995     34994     34996         0         1
     34998     34997     34999         0         1
     35001     35000     35002         0         1
     35004     35003     35005         0         1
     35007     35006     35008         0         1
     35010     35009     35011         0         1
     35013     35012     35014         0         1
     35016     35015     35017         0         1
     35019     35018     35020         0         1
     35022     35021     35023         0         1
     35025     35024     35026         0         1
     35028     35027     35029         0         1
     35031     35030     35032         0         1
     35034     35033     35035         0         1
     35037     35036     35038         0         1
     35040     35039     35041         0         1
     35043     35042     35044         0         1
     35046     35045     35047         0         1
     35049     35048     35050         0         1
     35052     35051     35053         0         1
     35055     35054     35056         0         1
     35058     35057     35059         0         1
     35061     35060     35062         0         1
     35064     35063     35065         0         1
     35067     35066     35068         0         1
     35070     35069     35071         0         1
     35073     35072     35074         0         1
     35076     35075     35077         0         1
     35079     35078     35080         0         1
     35082     35081     35083         0         1
     35085     35084     35086         0         1
     35088     35087     35089         0         1
     35091     35090     35092         0         1
     35094     35093     35095         0         1
     35097     35096     35098         0         1
     35100     35099     35101         0         1
     35103     35102     35104         0         1
     35106     35105     35107         0         1
     35109     35108     35110         0         1
     35112     35111     35113         0         1
     35115     35114     35116         0         1
     35118     35117     35119         0         1
     35121     35120     35122         0         1
     35124     35123     35125         0         1
     35127     35126     35128         0         1
     35130     35129     35131         0         1
     35133     35132     35134         0         1
     35136     35135     35137         0         1
     35139     35138     35140         0         1
     35142     35141     35143         0         1
     35145     35144     35146         0         1
     35148     35147     35149         0         1
     35151     35150     35152         0         1
     35154     35153     35155         0         1
     35157     35156     35158         0         1
     35160     35159     35161         0         1
     35163     35162     35164         0         1
     35166     35165     35167         0         1
     35169     35168     35170         0         1
     35172     35171     35173         0         1
     35175     35174     35176         0         1
     35178     35177     35179         0         1
     35181     35180     35182         0         1
     35184     35183     35185         0         1
     35187     35186     35188         0         1
     35190     35189     35191         0         1
     35193     35192     35194         0         1
     35196     35195     35197         0         1
     35199     35198     35200         0         1
